ITEM: TIMESTEP
1000000
ITEM: NUMBER OF ATOMS
91200
ITEM: BOX BOUNDS pp pp pp
-2.0000000000000000e+01 2.0000000000000000e+01
-2.0000000000000000e+01 2.0000000000000000e+01
0.0000000000000000e+00 4.1012200000000000e+01
ITEM: ATOMS id type x y z
1 2 -19.1855 -19.5 0.838695
2 2 -18.1895 -19.5 0.834548
3 2 -17.1936 -19.5 0.830253
7 2 -16.1978 -19.5 0.825819
8 2 -15.2019 -19.5 0.821257
16 2 -14.206 -19.5 0.816586
17 2 -13.21 -19.5 0.81183
29 2 -12.214 -19.5 0.807021
30 2 -11.2179 -19.5 0.802196
46 2 -10.2216 -19.5 0.797405
47 2 -9.22518 -19.5 0.792701
67 2 -8.22858 -19.5 0.788149
68 2 -7.23179 -19.5 0.783819
92 2 -6.23479 -19.5 0.779788
93 2 -5.23758 -19.5 0.776136
121 2 -4.24017 -19.5 0.772941
122 2 -3.24257 -19.5 0.770278
154 2 -2.24482 -19.5 0.768216
155 2 -1.24694 -19.5 0.766808
191 2 -0.248989 -19.5 0.766094
192 2 0.748989 -19.5 0.766094
232 2 1.74694 -19.5 0.766808
233 2 2.74482 -19.5 0.768216
277 2 3.74257 -19.5 0.770278
278 2 4.74017 -19.5 0.772941
326 2 5.73758 -19.5 0.776136
327 2 6.73479 -19.5 0.779788
379 2 7.73179 -19.5 0.783819
380 2 8.72858 -19.5 0.788149
436 2 9.72518 -19.5 0.792701
437 2 10.7216 -19.5 0.797405
497 2 11.7179 -19.5 0.802196
498 2 12.714 -19.5 0.807021
562 2 13.71 -19.5 0.81183
563 2 14.706 -19.5 0.816586
631 2 15.7019 -19.5 0.821257
632 2 16.6978 -19.5 0.825819
704 2 17.6936 -19.5 0.830253
705 2 18.6895 -19.5 0.834548
781 2 19.6855 -19.5 0.838695
4 2 -19.1855 -18.5 0.838695
5 2 -18.1895 -18.5 0.834548
9 2 -17.1936 -18.5 0.830253
10 2 -16.1978 -18.5 0.825819
18 2 -15.2019 -18.5 0.821257
19 2 -14.206 -18.5 0.816586
31 2 -13.21 -18.5 0.81183
32 2 -12.214 -18.5 0.807021
48 2 -11.2179 -18.5 0.802196
49 2 -10.2216 -18.5 0.797405
69 2 -9.22518 -18.5 0.792701
70 2 -8.22858 -18.5 0.788149
94 2 -7.23179 -18.5 0.783819
95 2 -6.23479 -18.5 0.779788
123 2 -5.23758 -18.5 0.776136
124 2 -4.24017 -18.5 0.772941
156 2 -3.24257 -18.5 0.770278
157 2 -2.24482 -18.5 0.768216
193 2 -1.24694 -18.5 0.766808
194 2 -0.248989 -18.5 0.766094
234 2 0.748989 -18.5 0.766094
235 2 1.74694 -18.5 0.766808
279 2 2.74482 -18.5 0.768216
280 2 3.74257 -18.5 0.770278
328 2 4.74017 -18.5 0.772941
329 2 5.73758 -18.5 0.776136
381 2 6.73479 -18.5 0.779788
382 2 7.73179 -18.5 0.783819
438 2 8.72858 -18.5 0.788149
439 2 9.72518 -18.5 0.792701
499 2 10.7216 -18.5 0.797405
500 2 11.7179 -18.5 0.802196
564 2 12.714 -18.5 0.807021
565 2 13.71 -18.5 0.81183
633 2 14.706 -18.5 0.816586
634 2 15.7019 -18.5 0.821257
706 2 16.6978 -18.5 0.825819
707 2 17.6936 -18.5 0.830253
782 2 18.6895 -18.5 0.834548
783 2 19.6855 -18.5 0.838695
6 2 -19.1855 -17.5 0.838695
11 2 -18.1895 -17.5 0.834548
12 2 -17.1936 -17.5 0.830253
20 2 -16.1978 -17.5 0.825819
21 2 -15.2019 -17.5 0.821257
33 2 -14.206 -17.5 0.816586
34 2 -13.21 -17.5 0.81183
50 2 -12.214 -17.5 0.807021
51 2 -11.2179 -17.5 0.802196
71 2 -10.2216 -17.5 0.797405
72 2 -9.22518 -17.5 0.792701
96 2 -8.22858 -17.5 0.788149
97 2 -7.23179 -17.5 0.783819
125 2 -6.23479 -17.5 0.779788
126 2 -5.23758 -17.5 0.776136
158 2 -4.24017 -17.5 0.772941
159 2 -3.24257 -17.5 0.770278
195 2 -2.24482 -17.5 0.768216
196 2 -1.24694 -17.5 0.766808
236 2 -0.248989 -17.5 0.766094
237 2 0.748989 -17.5 0.766094
281 2 1.74694 -17.5 0.766808
282 2 2.74482 -17.5 0.768216
330 2 3.74257 -17.5 0.770278
331 2 4.74017 -17.5 0.772941
383 2 5.73758 -17.5 0.776136
384 2 6.73479 -17.5 0.779788
440 2 7.73179 -17.5 0.783819
441 2 8.72858 -17.5 0.788149
501 2 9.72518 -17.5 0.792701
502 2 10.7216 -17.5 0.797405
566 2 11.7179 -17.5 0.802196
567 2 12.714 -17.5 0.807021
635 2 13.71 -17.5 0.81183
636 2 14.706 -17.5 0.816586
708 2 15.7019 -17.5 0.821257
709 2 16.6978 -17.5 0.825819
784 2 17.6936 -17.5 0.830253
785 2 18.6895 -17.5 0.834548
860 2 19.6855 -17.5 0.838695
13 2 -19.1855 -16.5 0.838695
14 2 -18.1895 -16.5 0.834548
22 2 -17.1936 -16.5 0.830253
23 2 -16.1978 -16.5 0.825819
35 2 -15.2019 -16.5 0.821257
36 2 -14.206 -16.5 0.816586
52 2 -13.21 -16.5 0.81183
53 2 -12.214 -16.5 0.807021
73 2 -11.2179 -16.5 0.802196
74 2 -10.2216 -16.5 0.797405
98 2 -9.22518 -16.5 0.792701
99 2 -8.22858 -16.5 0.788149
127 2 -7.23179 -16.5 0.783819
128 2 -6.23479 -16.5 0.779788
160 2 -5.23758 -16.5 0.776136
161 2 -4.24017 -16.5 0.772941
197 2 -3.24257 -16.5 0.770278
198 2 -2.24482 -16.5 0.768216
238 2 -1.24694 -16.5 0.766808
239 2 -0.248989 -16.5 0.766094
283 2 0.748989 -16.5 0.766094
284 2 1.74694 -16.5 0.766808
332 2 2.74482 -16.5 0.768216
333 2 3.74257 -16.5 0.770278
385 2 4.74017 -16.5 0.772941
386 2 5.73758 -16.5 0.776136
442 2 6.73479 -16.5 0.779788
443 2 7.73179 -16.5 0.783819
503 2 8.72858 -16.5 0.788149
504 2 9.72518 -16.5 0.792701
568 2 10.7216 -16.5 0.797405
569 2 11.7179 -16.5 0.802196
637 2 12.714 -16.5 0.807021
638 2 13.71 -16.5 0.81183
710 2 14.706 -16.5 0.816586
711 2 15.7019 -16.5 0.821257
786 2 16.6978 -16.5 0.825819
787 2 17.6936 -16.5 0.830253
861 2 18.6895 -16.5 0.834548
862 2 19.6855 -16.5 0.838695
15 2 -19.1855 -15.5 0.838695
24 2 -18.1895 -15.5 0.834548
25 2 -17.1936 -15.5 0.830253
37 2 -16.1978 -15.5 0.825819
38 2 -15.2019 -15.5 0.821257
54 2 -14.206 -15.5 0.816586
55 2 -13.21 -15.5 0.81183
75 2 -12.214 -15.5 0.807021
76 2 -11.2179 -15.5 0.802196
100 2 -10.2216 -15.5 0.797405
101 2 -9.22518 -15.5 0.792701
129 2 -8.22858 -15.5 0.788149
130 2 -7.23179 -15.5 0.783819
162 2 -6.23479 -15.5 0.779788
163 2 -5.23758 -15.5 0.776136
199 2 -4.24017 -15.5 0.772941
200 2 -3.24257 -15.5 0.770278
240 2 -2.24482 -15.5 0.768216
241 2 -1.24694 -15.5 0.766808
285 2 -0.248989 -15.5 0.766094
286 2 0.748989 -15.5 0.766094
334 2 1.74694 -15.5 0.766808
335 2 2.74482 -15.5 0.768216
387 2 3.74257 -15.5 0.770278
388 2 4.74017 -15.5 0.772941
444 2 5.73758 -15.5 0.776136
445 2 6.73479 -15.5 0.779788
505 2 7.73179 -15.5 0.783819
506 2 8.72858 -15.5 0.788149
570 2 9.72518 -15.5 0.792701
571 2 10.7216 -15.5 0.797405
639 2 11.7179 -15.5 0.802196
640 2 12.714 -15.5 0.807021
712 2 13.71 -15.5 0.81183
713 2 14.706 -15.5 0.816586
788 2 15.7019 -15.5 0.821257
789 2 16.6978 -15.5 0.825819
863 2 17.6936 -15.5 0.830253
864 2 18.6895 -15.5 0.834548
935 2 19.6855 -15.5 0.838695
26 2 -19.1855 -14.5 0.838695
27 2 -18.1895 -14.5 0.834548
39 2 -17.1936 -14.5 0.830253
40 2 -16.1978 -14.5 0.825819
56 2 -15.2019 -14.5 0.821257
57 2 -14.206 -14.5 0.816586
77 2 -13.21 -14.5 0.81183
78 2 -12.214 -14.5 0.807021
102 2 -11.2179 -14.5 0.802196
103 2 -10.2216 -14.5 0.797405
131 2 -9.22518 -14.5 0.792701
132 2 -8.22858 -14.5 0.788149
164 2 -7.23179 -14.5 0.783819
165 2 -6.23479 -14.5 0.779788
201 2 -5.23758 -14.5 0.776136
202 2 -4.24017 -14.5 0.772941
242 2 -3.24257 -14.5 0.770278
243 2 -2.24482 -14.5 0.768216
287 2 -1.24694 -14.5 0.766808
288 2 -0.248989 -14.5 0.766094
336 2 0.748989 -14.5 0.766094
337 2 1.74694 -14.5 0.766808
389 2 2.74482 -14.5 0.768216
390 2 3.74257 -14.5 0.770278
446 2 4.74017 -14.5 0.772941
447 2 5.73758 -14.5 0.776136
507 2 6.73479 -14.5 0.779788
508 2 7.73179 -14.5 0.783819
572 2 8.72858 -14.5 0.788149
573 2 9.72518 -14.5 0.792701
641 2 10.7216 -14.5 0.797405
642 2 11.7179 -14.5 0.802196
714 2 12.714 -14.5 0.807021
715 2 13.71 -14.5 0.81183
790 2 14.706 -14.5 0.816586
791 2 15.7019 -14.5 0.821257
865 2 16.6978 -14.5 0.825819
866 2 17.6936 -14.5 0.830253
936 2 18.6895 -14.5 0.834548
937 2 19.6855 -14.5 0.838695
28 2 -19.1855 -13.5 0.838695
41 2 -18.1895 -13.5 0.834548
42 2 -17.1936 -13.5 0.830253
58 2 -16.1978 -13.5 0.825819
59 2 -15.2019 -13.5 0.821257
79 2 -14.206 -13.5 0.816586
80 2 -13.21 -13.5 0.81183
104 2 -12.214 -13.5 0.807021
105 2 -11.2179 -13.5 0.802196
133 2 -10.2216 -13.5 0.797405
134 2 -9.22518 -13.5 0.792701
166 2 -8.22858 -13.5 0.788149
167 2 -7.23179 -13.5 0.783819
203 2 -6.23479 -13.5 0.779788
204 2 -5.23758 -13.5 0.776136
244 2 -4.24017 -13.5 0.772941
245 2 -3.24257 -13.5 0.770278
289 2 -2.24482 -13.5 0.768216
290 2 -1.24694 -13.5 0.766808
338 2 -0.248989 -13.5 0.766094
339 2 0.748989 -13.5 0.766094
391 2 1.74694 -13.5 0.766808
392 2 2.74482 -13.5 0.768216
448 2 3.74257 -13.5 0.770278
449 2 4.74017 -13.5 0.772941
509 2 5.73758 -13.5 0.776136
510 2 6.73479 -13.5 0.779788
574 2 7.73179 -13.5 0.783819
575 2 8.72858 -13.5 0.788149
643 2 9.72518 -13.5 0.792701
644 2 10.7216 -13.5 0.797405
716 2 11.7179 -13.5 0.802196
717 2 12.714 -13.5 0.807021
792 2 13.71 -13.5 0.81183
793 2 14.706 -13.5 0.816586
867 2 15.7019 -13.5 0.821257
868 2 16.6978 -13.5 0.825819
938 2 17.6936 -13.5 0.830253
939 2 18.6895 -13.5 0.834548
1006 2 19.6855 -13.5 0.838695
43 2 -19.1855 -12.5 0.838695
44 2 -18.1895 -12.5 0.834548
60 2 -17.1936 -12.5 0.830253
61 2 -16.1978 -12.5 0.825819
81 2 -15.2019 -12.5 0.821257
82 2 -14.206 -12.5 0.816586
106 2 -13.21 -12.5 0.81183
107 2 -12.214 -12.5 0.807021
135 2 -11.2179 -12.5 0.802196
136 2 -10.2216 -12.5 0.797405
168 2 -9.22518 -12.5 0.792701
169 2 -8.22858 -12.5 0.788149
205 2 -7.23179 -12.5 0.783819
206 2 -6.23479 -12.5 0.779788
246 2 -5.23758 -12.5 0.776136
247 2 -4.24017 -12.5 0.772941
291 2 -3.24257 -12.5 0.770278
292 2 -2.24482 -12.5 0.768216
340 2 -1.24694 -12.5 0.766808
341 2 -0.248989 -12.5 0.766094
393 2 0.748989 -12.5 0.766094
394 2 1.74694 -12.5 0.766808
450 2 2.74482 -12.5 0.768216
451 2 3.74257 -12.5 0.770278
511 2 4.74017 -12.5 0.772941
512 2 5.73758 -12.5 0.776136
576 2 6.73479 -12.5 0.779788
577 2 7.73179 -12.5 0.783819
645 2 8.72858 -12.5 0.788149
646 2 9.72518 -12.5 0.792701
718 2 10.7216 -12.5 0.797405
719 2 11.7179 -12.5 0.802196
794 2 12.714 -12.5 0.807021
795 2 13.71 -12.5 0.81183
869 2 14.706 -12.5 0.816586
870 2 15.7019 -12.5 0.821257
940 2 16.6978 -12.5 0.825819
941 2 17.6936 -12.5 0.830253
1007 2 18.6895 -12.5 0.834548
1008 2 19.6855 -12.5 0.838695
45 2 -19.1855 -11.5 0.838695
62 2 -18.1895 -11.5 0.834548
63 2 -17.1936 -11.5 0.830253
83 2 -16.1978 -11.5 0.825819
84 2 -15.2019 -11.5 0.821257
108 2 -14.206 -11.5 0.816586
109 2 -13.21 -11.5 0.81183
137 2 -12.214 -11.5 0.807021
138 2 -11.2179 -11.5 0.802196
170 2 -10.2216 -11.5 0.797405
171 2 -9.22518 -11.5 0.792701
207 2 -8.22858 -11.5 0.788149
208 2 -7.23179 -11.5 0.783819
248 2 -6.23479 -11.5 0.779788
249 2 -5.23758 -11.5 0.776136
293 2 -4.24017 -11.5 0.772941
294 2 -3.24257 -11.5 0.770278
342 2 -2.24482 -11.5 0.768216
343 2 -1.24694 -11.5 0.766808
395 2 -0.248989 -11.5 0.766094
396 2 0.748989 -11.5 0.766094
452 2 1.74694 -11.5 0.766808
453 2 2.74482 -11.5 0.768216
513 2 3.74257 -11.5 0.770278
514 2 4.74017 -11.5 0.772941
578 2 5.73758 -11.5 0.776136
579 2 6.73479 -11.5 0.779788
647 2 7.73179 -11.5 0.783819
648 2 8.72858 -11.5 0.788149
720 2 9.72518 -11.5 0.792701
721 2 10.7216 -11.5 0.797405
796 2 11.7179 -11.5 0.802196
797 2 12.714 -11.5 0.807021
871 2 13.71 -11.5 0.81183
872 2 14.706 -11.5 0.816586
942 2 15.7019 -11.5 0.821257
943 2 16.6978 -11.5 0.825819
1009 2 17.6936 -11.5 0.830253
1010 2 18.6895 -11.5 0.834548
1073 2 19.6855 -11.5 0.838695
64 2 -19.1855 -10.5 0.838695
65 2 -18.1895 -10.5 0.834548
85 2 -17.1936 -10.5 0.830253
86 2 -16.1978 -10.5 0.825819
110 2 -15.2019 -10.5 0.821257
111 2 -14.206 -10.5 0.816586
139 2 -13.21 -10.5 0.81183
140 2 -12.214 -10.5 0.807021
172 2 -11.2179 -10.5 0.802196
173 2 -10.2216 -10.5 0.797405
209 2 -9.22518 -10.5 0.792701
210 2 -8.22858 -10.5 0.788149
250 2 -7.23179 -10.5 0.783819
251 2 -6.23479 -10.5 0.779788
295 2 -5.23758 -10.5 0.776136
296 2 -4.24017 -10.5 0.772941
344 2 -3.24257 -10.5 0.770278
345 2 -2.24482 -10.5 0.768216
397 2 -1.24694 -10.5 0.766808
398 2 -0.248989 -10.5 0.766094
454 2 0.748989 -10.5 0.766094
455 2 1.74694 -10.5 0.766808
515 2 2.74482 -10.5 0.768216
516 2 3.74257 -10.5 0.770278
580 2 4.74017 -10.5 0.772941
581 2 5.73758 -10.5 0.776136
649 2 6.73479 -10.5 0.779788
650 2 7.73179 -10.5 0.783819
722 2 8.72858 -10.5 0.788149
723 2 9.72518 -10.5 0.792701
798 2 10.7216 -10.5 0.797405
799 2 11.7179 -10.5 0.802196
873 2 12.714 -10.5 0.807021
874 2 13.71 -10.5 0.81183
944 2 14.706 -10.5 0.816586
945 2 15.7019 -10.5 0.821257
1011 2 16.6978 -10.5 0.825819
1012 2 17.6936 -10.5 0.830253
1074 2 18.6895 -10.5 0.834548
1075 2 19.6855 -10.5 0.838695
66 2 -19.1855 -9.5 0.838695
87 2 -18.1895 -9.5 0.834548
88 2 -17.1936 -9.5 0.830253
112 2 -16.1978 -9.5 0.825819
113 2 -15.2019 -9.5 0.821257
141 2 -14.206 -9.5 0.816586
142 2 -13.21 -9.5 0.81183
174 2 -12.214 -9.5 0.807021
175 2 -11.2179 -9.5 0.802196
211 2 -10.2216 -9.5 0.797405
212 2 -9.22518 -9.5 0.792701
252 2 -8.22858 -9.5 0.788149
253 2 -7.23179 -9.5 0.783819
297 2 -6.23479 -9.5 0.779788
298 2 -5.23758 -9.5 0.776136
346 2 -4.24017 -9.5 0.772941
347 2 -3.24257 -9.5 0.770278
399 2 -2.24482 -9.5 0.768216
400 2 -1.24694 -9.5 0.766808
456 2 -0.248989 -9.5 0.766094
457 2 0.748989 -9.5 0.766094
517 2 1.74694 -9.5 0.766808
518 2 2.74482 -9.5 0.768216
582 2 3.74257 -9.5 0.770278
583 2 4.74017 -9.5 0.772941
651 2 5.73758 -9.5 0.776136
652 2 6.73479 -9.5 0.779788
724 2 7.73179 -9.5 0.783819
725 2 8.72858 -9.5 0.788149
800 2 9.72518 -9.5 0.792701
801 2 10.7216 -9.5 0.797405
875 2 11.7179 -9.5 0.802196
876 2 12.714 -9.5 0.807021
946 2 13.71 -9.5 0.81183
947 2 14.706 -9.5 0.816586
1013 2 15.7019 -9.5 0.821257
1014 2 16.6978 -9.5 0.825819
1076 2 17.6936 -9.5 0.830253
1077 2 18.6895 -9.5 0.834548
1136 2 19.6855 -9.5 0.838695
89 2 -19.1855 -8.5 0.838695
90 2 -18.1895 -8.5 0.834548
114 2 -17.1936 -8.5 0.830253
115 2 -16.1978 -8.5 0.825819
143 2 -15.2019 -8.5 0.821257
144 2 -14.206 -8.5 0.816586
176 2 -13.21 -8.5 0.81183
177 2 -12.214 -8.5 0.807021
213 2 -11.2179 -8.5 0.802196
214 2 -10.2216 -8.5 0.797405
254 2 -9.22518 -8.5 0.792701
255 2 -8.22858 -8.5 0.788149
299 2 -7.23179 -8.5 0.783819
300 2 -6.23479 -8.5 0.779788
348 2 -5.23758 -8.5 0.776136
349 2 -4.24017 -8.5 0.772941
401 2 -3.24257 -8.5 0.770278
402 2 -2.24482 -8.5 0.768216
458 2 -1.24694 -8.5 0.766808
459 2 -0.248989 -8.5 0.766094
519 2 0.748989 -8.5 0.766094
520 2 1.74694 -8.5 0.766808
584 2 2.74482 -8.5 0.768216
585 2 3.74257 -8.5 0.770278
653 2 4.74017 -8.5 0.772941
654 2 5.73758 -8.5 0.776136
726 2 6.73479 -8.5 0.779788
727 2 7.73179 -8.5 0.783819
802 2 8.72858 -8.5 0.788149
803 2 9.72518 -8.5 0.792701
877 2 10.7216 -8.5 0.797405
878 2 11.7179 -8.5 0.802196
948 2 12.714 -8.5 0.807021
949 2 13.71 -8.5 0.81183
1015 2 14.706 -8.5 0.816586
1016 2 15.7019 -8.5 0.821257
1078 2 16.6978 -8.5 0.825819
1079 2 17.6936 -8.5 0.830253
1137 2 18.6895 -8.5 0.834548
1138 2 19.6855 -8.5 0.838695
91 2 -19.1855 -7.5 0.838695
116 2 -18.1895 -7.5 0.834548
117 2 -17.1936 -7.5 0.830253
145 2 -16.1978 -7.5 0.825819
146 2 -15.2019 -7.5 0.821257
178 2 -14.206 -7.5 0.816586
179 2 -13.21 -7.5 0.81183
215 2 -12.214 -7.5 0.807021
216 2 -11.2179 -7.5 0.802196
256 2 -10.2216 -7.5 0.797405
257 2 -9.22518 -7.5 0.792701
301 2 -8.22858 -7.5 0.788149
302 2 -7.23179 -7.5 0.783819
350 2 -6.23479 -7.5 0.779788
351 2 -5.23758 -7.5 0.776136
403 2 -4.24017 -7.5 0.772941
404 2 -3.24257 -7.5 0.770278
460 2 -2.24482 -7.5 0.768216
461 2 -1.24694 -7.5 0.766808
521 2 -0.248989 -7.5 0.766094
522 2 0.748989 -7.5 0.766094
586 2 1.74694 -7.5 0.766808
587 2 2.74482 -7.5 0.768216
655 2 3.74257 -7.5 0.770278
656 2 4.74017 -7.5 0.772941
728 2 5.73758 -7.5 0.776136
729 2 6.73479 -7.5 0.779788
804 2 7.73179 -7.5 0.783819
805 2 8.72858 -7.5 0.788149
879 2 9.72518 -7.5 0.792701
880 2 10.7216 -7.5 0.797405
950 2 11.7179 -7.5 0.802196
951 2 12.714 -7.5 0.807021
1017 2 13.71 -7.5 0.81183
1018 2 14.706 -7.5 0.816586
1080 2 15.7019 -7.5 0.821257
1081 2 16.6978 -7.5 0.825819
1139 2 17.6936 -7.5 0.830253
1140 2 18.6895 -7.5 0.834548
1195 2 19.6855 -7.5 0.838695
118 2 -19.1855 -6.5 0.838695
119 2 -18.1895 -6.5 0.834548
147 2 -17.1936 -6.5 0.830253
148 2 -16.1978 -6.5 0.825819
180 2 -15.2019 -6.5 0.821257
181 2 -14.206 -6.5 0.816586
217 2 -13.21 -6.5 0.81183
218 2 -12.214 -6.5 0.807021
258 2 -11.2179 -6.5 0.802196
259 2 -10.2216 -6.5 0.797405
303 2 -9.22518 -6.5 0.792701
304 2 -8.22858 -6.5 0.788149
352 2 -7.23179 -6.5 0.783819
353 2 -6.23479 -6.5 0.779788
405 2 -5.23758 -6.5 0.776136
406 2 -4.24017 -6.5 0.772941
462 2 -3.24257 -6.5 0.770278
463 2 -2.24482 -6.5 0.768216
523 2 -1.24694 -6.5 0.766808
524 2 -0.248989 -6.5 0.766094
588 2 0.748989 -6.5 0.766094
589 2 1.74694 -6.5 0.766808
657 2 2.74482 -6.5 0.768216
658 2 3.74257 -6.5 0.770278
730 2 4.74017 -6.5 0.772941
731 2 5.73758 -6.5 0.776136
806 2 6.73479 -6.5 0.779788
807 2 7.73179 -6.5 0.783819
881 2 8.72858 -6.5 0.788149
882 2 9.72518 -6.5 0.792701
952 2 10.7216 -6.5 0.797405
953 2 11.7179 -6.5 0.802196
1019 2 12.714 -6.5 0.807021
1020 2 13.71 -6.5 0.81183
1082 2 14.706 -6.5 0.816586
1083 2 15.7019 -6.5 0.821257
1141 2 16.6978 -6.5 0.825819
1142 2 17.6936 -6.5 0.830253
1196 2 18.6895 -6.5 0.834548
1197 2 19.6855 -6.5 0.838695
120 2 -19.1855 -5.5 0.838695
149 2 -18.1895 -5.5 0.834548
150 2 -17.1936 -5.5 0.830253
182 2 -16.1978 -5.5 0.825819
183 2 -15.2019 -5.5 0.821257
219 2 -14.206 -5.5 0.816586
220 2 -13.21 -5.5 0.81183
260 2 -12.214 -5.5 0.807021
261 2 -11.2179 -5.5 0.802196
305 2 -10.2216 -5.5 0.797405
306 2 -9.22518 -5.5 0.792701
354 2 -8.22858 -5.5 0.788149
355 2 -7.23179 -5.5 0.783819
407 2 -6.23479 -5.5 0.779788
408 2 -5.23758 -5.5 0.776136
464 2 -4.24017 -5.5 0.772941
465 2 -3.24257 -5.5 0.770278
525 2 -2.24482 -5.5 0.768216
526 2 -1.24694 -5.5 0.766808
590 2 -0.248989 -5.5 0.766094
591 2 0.748989 -5.5 0.766094
659 2 1.74694 -5.5 0.766808
660 2 2.74482 -5.5 0.768216
732 2 3.74257 -5.5 0.770278
733 2 4.74017 -5.5 0.772941
808 2 5.73758 -5.5 0.776136
809 2 6.73479 -5.5 0.779788
883 2 7.73179 -5.5 0.783819
884 2 8.72858 -5.5 0.788149
954 2 9.72518 -5.5 0.792701
955 2 10.7216 -5.5 0.797405
1021 2 11.7179 -5.5 0.802196
1022 2 12.714 -5.5 0.807021
1084 2 13.71 -5.5 0.81183
1085 2 14.706 -5.5 0.816586
1143 2 15.7019 -5.5 0.821257
1144 2 16.6978 -5.5 0.825819
1198 2 17.6936 -5.5 0.830253
1199 2 18.6895 -5.5 0.834548
1250 2 19.6855 -5.5 0.838695
151 2 -19.1855 -4.5 0.838695
152 2 -18.1895 -4.5 0.834548
184 2 -17.1936 -4.5 0.830253
185 2 -16.1978 -4.5 0.825819
221 2 -15.2019 -4.5 0.821257
222 2 -14.206 -4.5 0.816586
262 2 -13.21 -4.5 0.81183
263 2 -12.214 -4.5 0.807021
307 2 -11.2179 -4.5 0.802196
308 2 -10.2216 -4.5 0.797405
356 2 -9.22518 -4.5 0.792701
357 2 -8.22858 -4.5 0.788149
409 2 -7.23179 -4.5 0.783819
410 2 -6.23479 -4.5 0.779788
466 2 -5.23758 -4.5 0.776136
467 2 -4.24017 -4.5 0.772941
527 2 -3.24257 -4.5 0.770278
528 2 -2.24482 -4.5 0.768216
592 2 -1.24694 -4.5 0.766808
593 2 -0.248989 -4.5 0.766094
661 2 0.748989 -4.5 0.766094
662 2 1.74694 -4.5 0.766808
734 2 2.74482 -4.5 0.768216
735 2 3.74257 -4.5 0.770278
810 2 4.74017 -4.5 0.772941
811 2 5.73758 -4.5 0.776136
885 2 6.73479 -4.5 0.779788
886 2 7.73179 -4.5 0.783819
956 2 8.72858 -4.5 0.788149
957 2 9.72518 -4.5 0.792701
1023 2 10.7216 -4.5 0.797405
1024 2 11.7179 -4.5 0.802196
1086 2 12.714 -4.5 0.807021
1087 2 13.71 -4.5 0.81183
1145 2 14.706 -4.5 0.816586
1146 2 15.7019 -4.5 0.821257
1200 2 16.6978 -4.5 0.825819
1201 2 17.6936 -4.5 0.830253
1251 2 18.6895 -4.5 0.834548
1252 2 19.6855 -4.5 0.838695
153 2 -19.1855 -3.5 0.838695
186 2 -18.1895 -3.5 0.834548
187 2 -17.1936 -3.5 0.830253
223 2 -16.1978 -3.5 0.825819
224 2 -15.2019 -3.5 0.821257
264 2 -14.206 -3.5 0.816586
265 2 -13.21 -3.5 0.81183
309 2 -12.214 -3.5 0.807021
310 2 -11.2179 -3.5 0.802196
358 2 -10.2216 -3.5 0.797405
359 2 -9.22518 -3.5 0.792701
411 2 -8.22858 -3.5 0.788149
412 2 -7.23179 -3.5 0.783819
468 2 -6.23479 -3.5 0.779788
469 2 -5.23758 -3.5 0.776136
529 2 -4.24017 -3.5 0.772941
530 2 -3.24257 -3.5 0.770278
594 2 -2.24482 -3.5 0.768216
595 2 -1.24694 -3.5 0.766808
663 2 -0.248989 -3.5 0.766094
664 2 0.748989 -3.5 0.766094
736 2 1.74694 -3.5 0.766808
737 2 2.74482 -3.5 0.768216
812 2 3.74257 -3.5 0.770278
813 2 4.74017 -3.5 0.772941
887 2 5.73758 -3.5 0.776136
888 2 6.73479 -3.5 0.779788
958 2 7.73179 -3.5 0.783819
959 2 8.72858 -3.5 0.788149
1025 2 9.72518 -3.5 0.792701
1026 2 10.7216 -3.5 0.797405
1088 2 11.7179 -3.5 0.802196
1089 2 12.714 -3.5 0.807021
1147 2 13.71 -3.5 0.81183
1148 2 14.706 -3.5 0.816586
1202 2 15.7019 -3.5 0.821257
1203 2 16.6978 -3.5 0.825819
1253 2 17.6936 -3.5 0.830253
1254 2 18.6895 -3.5 0.834548
1301 2 19.6855 -3.5 0.838695
188 2 -19.1855 -2.5 0.838695
189 2 -18.1895 -2.5 0.834548
225 2 -17.1936 -2.5 0.830253
226 2 -16.1978 -2.5 0.825819
266 2 -15.2019 -2.5 0.821257
267 2 -14.206 -2.5 0.816586
311 2 -13.21 -2.5 0.81183
312 2 -12.214 -2.5 0.807021
360 2 -11.2179 -2.5 0.802196
361 2 -10.2216 -2.5 0.797405
413 2 -9.22518 -2.5 0.792701
414 2 -8.22858 -2.5 0.788149
470 2 -7.23179 -2.5 0.783819
471 2 -6.23479 -2.5 0.779788
531 2 -5.23758 -2.5 0.776136
532 2 -4.24017 -2.5 0.772941
596 2 -3.24257 -2.5 0.770278
597 2 -2.24482 -2.5 0.768216
665 2 -1.24694 -2.5 0.766808
666 2 -0.248989 -2.5 0.766094
738 2 0.748989 -2.5 0.766094
739 2 1.74694 -2.5 0.766808
814 2 2.74482 -2.5 0.768216
815 2 3.74257 -2.5 0.770278
889 2 4.74017 -2.5 0.772941
890 2 5.73758 -2.5 0.776136
960 2 6.73479 -2.5 0.779788
961 2 7.73179 -2.5 0.783819
1027 2 8.72858 -2.5 0.788149
1028 2 9.72518 -2.5 0.792701
1090 2 10.7216 -2.5 0.797405
1091 2 11.7179 -2.5 0.802196
1149 2 12.714 -2.5 0.807021
1150 2 13.71 -2.5 0.81183
1204 2 14.706 -2.5 0.816586
1205 2 15.7019 -2.5 0.821257
1255 2 16.6978 -2.5 0.825819
1256 2 17.6936 -2.5 0.830253
1302 2 18.6895 -2.5 0.834548
1303 2 19.6855 -2.5 0.838695
190 2 -19.1855 -1.5 0.838695
227 2 -18.1895 -1.5 0.834548
228 2 -17.1936 -1.5 0.830253
268 2 -16.1978 -1.5 0.825819
269 2 -15.2019 -1.5 0.821257
313 2 -14.206 -1.5 0.816586
314 2 -13.21 -1.5 0.81183
362 2 -12.214 -1.5 0.807021
363 2 -11.2179 -1.5 0.802196
415 2 -10.2216 -1.5 0.797405
416 2 -9.22518 -1.5 0.792701
472 2 -8.22858 -1.5 0.788149
473 2 -7.23179 -1.5 0.783819
533 2 -6.23479 -1.5 0.779788
534 2 -5.23758 -1.5 0.776136
598 2 -4.24017 -1.5 0.772941
599 2 -3.24257 -1.5 0.770278
667 2 -2.24482 -1.5 0.768216
668 2 -1.24694 -1.5 0.766808
740 2 -0.248989 -1.5 0.766094
741 2 0.748989 -1.5 0.766094
816 2 1.74694 -1.5 0.766808
817 2 2.74482 -1.5 0.768216
891 2 3.74257 -1.5 0.770278
892 2 4.74017 -1.5 0.772941
962 2 5.73758 -1.5 0.776136
963 2 6.73479 -1.5 0.779788
1029 2 7.73179 -1.5 0.783819
1030 2 8.72858 -1.5 0.788149
1092 2 9.72518 -1.5 0.792701
1093 2 10.7216 -1.5 0.797405
1151 2 11.7179 -1.5 0.802196
1152 2 12.714 -1.5 0.807021
1206 2 13.71 -1.5 0.81183
1207 2 14.706 -1.5 0.816586
1257 2 15.7019 -1.5 0.821257
1258 2 16.6978 -1.5 0.825819
1304 2 17.6936 -1.5 0.830253
1305 2 18.6895 -1.5 0.834548
1348 2 19.6855 -1.5 0.838695
229 2 -19.1855 -0.5 0.838695
230 2 -18.1895 -0.5 0.834548
270 2 -17.1936 -0.5 0.830253
271 2 -16.1978 -0.5 0.825819
315 2 -15.2019 -0.5 0.821257
316 2 -14.206 -0.5 0.816586
364 2 -13.21 -0.5 0.81183
365 2 -12.214 -0.5 0.807021
417 2 -11.2179 -0.5 0.802196
418 2 -10.2216 -0.5 0.797405
474 2 -9.22518 -0.5 0.792701
475 2 -8.22858 -0.5 0.788149
535 2 -7.23179 -0.5 0.783819
536 2 -6.23479 -0.5 0.779788
600 2 -5.23758 -0.5 0.776136
601 2 -4.24017 -0.5 0.772941
669 2 -3.24257 -0.5 0.770278
670 2 -2.24482 -0.5 0.768216
742 2 -1.24694 -0.5 0.766808
743 2 -0.248989 -0.5 0.766094
818 2 0.748989 -0.5 0.766094
819 2 1.74694 -0.5 0.766808
893 2 2.74482 -0.5 0.768216
894 2 3.74257 -0.5 0.770278
964 2 4.74017 -0.5 0.772941
965 2 5.73758 -0.5 0.776136
1031 2 6.73479 -0.5 0.779788
1032 2 7.73179 -0.5 0.783819
1094 2 8.72858 -0.5 0.788149
1095 2 9.72518 -0.5 0.792701
1153 2 10.7216 -0.5 0.797405
1154 2 11.7179 -0.5 0.802196
1208 2 12.714 -0.5 0.807021
1209 2 13.71 -0.5 0.81183
1259 2 14.706 -0.5 0.816586
1260 2 15.7019 -0.5 0.821257
1306 2 16.6978 -0.5 0.825819
1307 2 17.6936 -0.5 0.830253
1349 2 18.6895 -0.5 0.834548
1350 2 19.6855 -0.5 0.838695
231 2 -19.1855 0.5 0.838695
272 2 -18.1895 0.5 0.834548
273 2 -17.1936 0.5 0.830253
317 2 -16.1978 0.5 0.825819
318 2 -15.2019 0.5 0.821257
366 2 -14.206 0.5 0.816586
367 2 -13.21 0.5 0.81183
419 2 -12.214 0.5 0.807021
420 2 -11.2179 0.5 0.802196
476 2 -10.2216 0.5 0.797405
477 2 -9.22518 0.5 0.792701
537 2 -8.22858 0.5 0.788149
538 2 -7.23179 0.5 0.783819
602 2 -6.23479 0.5 0.779788
603 2 -5.23758 0.5 0.776136
671 2 -4.24017 0.5 0.772941
672 2 -3.24257 0.5 0.770278
744 2 -2.24482 0.5 0.768216
745 2 -1.24694 0.5 0.766808
820 2 -0.248989 0.5 0.766094
821 2 0.748989 0.5 0.766094
895 2 1.74694 0.5 0.766808
896 2 2.74482 0.5 0.768216
966 2 3.74257 0.5 0.770278
967 2 4.74017 0.5 0.772941
1033 2 5.73758 0.5 0.776136
1034 2 6.73479 0.5 0.779788
1096 2 7.73179 0.5 0.783819
1097 2 8.72858 0.5 0.788149
1155 2 9.72518 0.5 0.792701
1156 2 10.7216 0.5 0.797405
1210 2 11.7179 0.5 0.802196
1211 2 12.714 0.5 0.807021
1261 2 13.71 0.5 0.81183
1262 2 14.706 0.5 0.816586
1308 2 15.7019 0.5 0.821257
1309 2 16.6978 0.5 0.825819
1351 2 17.6936 0.5 0.830253
1352 2 18.6895 0.5 0.834548
1391 2 19.6855 0.5 0.838695
274 2 -19.1855 1.5 0.838695
275 2 -18.1895 1.5 0.834548
319 2 -17.1936 1.5 0.830253
320 2 -16.1978 1.5 0.825819
368 2 -15.2019 1.5 0.821257
369 2 -14.206 1.5 0.816586
421 2 -13.21 1.5 0.81183
422 2 -12.214 1.5 0.807021
478 2 -11.2179 1.5 0.802196
479 2 -10.2216 1.5 0.797405
539 2 -9.22518 1.5 0.792701
540 2 -8.22858 1.5 0.788149
604 2 -7.23179 1.5 0.783819
605 2 -6.23479 1.5 0.779788
673 2 -5.23758 1.5 0.776136
674 2 -4.24017 1.5 0.772941
746 2 -3.24257 1.5 0.770278
747 2 -2.24482 1.5 0.768216
822 2 -1.24694 1.5 0.766808
823 2 -0.248989 1.5 0.766094
897 2 0.748989 1.5 0.766094
898 2 1.74694 1.5 0.766808
968 2 2.74482 1.5 0.768216
969 2 3.74257 1.5 0.770278
1035 2 4.74017 1.5 0.772941
1036 2 5.73758 1.5 0.776136
1098 2 6.73479 1.5 0.779788
1099 2 7.73179 1.5 0.783819
1157 2 8.72858 1.5 0.788149
1158 2 9.72518 1.5 0.792701
1212 2 10.7216 1.5 0.797405
1213 2 11.7179 1.5 0.802196
1263 2 12.714 1.5 0.807021
1264 2 13.71 1.5 0.81183
1310 2 14.706 1.5 0.816586
1311 2 15.7019 1.5 0.821257
1353 2 16.6978 1.5 0.825819
1354 2 17.6936 1.5 0.830253
1392 2 18.6895 1.5 0.834548
1393 2 19.6855 1.5 0.838695
276 2 -19.1855 2.5 0.838695
321 2 -18.1895 2.5 0.834548
322 2 -17.1936 2.5 0.830253
370 2 -16.1978 2.5 0.825819
371 2 -15.2019 2.5 0.821257
423 2 -14.206 2.5 0.816586
424 2 -13.21 2.5 0.81183
480 2 -12.214 2.5 0.807021
481 2 -11.2179 2.5 0.802196
541 2 -10.2216 2.5 0.797405
542 2 -9.22518 2.5 0.792701
606 2 -8.22858 2.5 0.788149
607 2 -7.23179 2.5 0.783819
675 2 -6.23479 2.5 0.779788
676 2 -5.23758 2.5 0.776136
748 2 -4.24017 2.5 0.772941
749 2 -3.24257 2.5 0.770278
824 2 -2.24482 2.5 0.768216
825 2 -1.24694 2.5 0.766808
899 2 -0.248989 2.5 0.766094
900 2 0.748989 2.5 0.766094
970 2 1.74694 2.5 0.766808
971 2 2.74482 2.5 0.768216
1037 2 3.74257 2.5 0.770278
1038 2 4.74017 2.5 0.772941
1100 2 5.73758 2.5 0.776136
1101 2 6.73479 2.5 0.779788
1159 2 7.73179 2.5 0.783819
1160 2 8.72858 2.5 0.788149
1214 2 9.72518 2.5 0.792701
1215 2 10.7216 2.5 0.797405
1265 2 11.7179 2.5 0.802196
1266 2 12.714 2.5 0.807021
1312 2 13.71 2.5 0.81183
1313 2 14.706 2.5 0.816586
1355 2 15.7019 2.5 0.821257
1356 2 16.6978 2.5 0.825819
1394 2 17.6936 2.5 0.830253
1395 2 18.6895 2.5 0.834548
1430 2 19.6855 2.5 0.838695
323 2 -19.1855 3.5 0.838695
324 2 -18.1895 3.5 0.834548
372 2 -17.1936 3.5 0.830253
373 2 -16.1978 3.5 0.825819
425 2 -15.2019 3.5 0.821257
426 2 -14.206 3.5 0.816586
482 2 -13.21 3.5 0.81183
483 2 -12.214 3.5 0.807021
543 2 -11.2179 3.5 0.802196
544 2 -10.2216 3.5 0.797405
608 2 -9.22518 3.5 0.792701
609 2 -8.22858 3.5 0.788149
677 2 -7.23179 3.5 0.783819
678 2 -6.23479 3.5 0.779788
750 2 -5.23758 3.5 0.776136
751 2 -4.24017 3.5 0.772941
826 2 -3.24257 3.5 0.770278
827 2 -2.24482 3.5 0.768216
901 2 -1.24694 3.5 0.766808
902 2 -0.248989 3.5 0.766094
972 2 0.748989 3.5 0.766094
973 2 1.74694 3.5 0.766808
1039 2 2.74482 3.5 0.768216
1040 2 3.74257 3.5 0.770278
1102 2 4.74017 3.5 0.772941
1103 2 5.73758 3.5 0.776136
1161 2 6.73479 3.5 0.779788
1162 2 7.73179 3.5 0.783819
1216 2 8.72858 3.5 0.788149
1217 2 9.72518 3.5 0.792701
1267 2 10.7216 3.5 0.797405
1268 2 11.7179 3.5 0.802196
1314 2 12.714 3.5 0.807021
1315 2 13.71 3.5 0.81183
1357 2 14.706 3.5 0.816586
1358 2 15.7019 3.5 0.821257
1396 2 16.6978 3.5 0.825819
1397 2 17.6936 3.5 0.830253
1431 2 18.6895 3.5 0.834548
1432 2 19.6855 3.5 0.838695
325 2 -19.1855 4.5 0.838695
374 2 -18.1895 4.5 0.834548
375 2 -17.1936 4.5 0.830253
427 2 -16.1978 4.5 0.825819
428 2 -15.2019 4.5 0.821257
484 2 -14.206 4.5 0.816586
485 2 -13.21 4.5 0.81183
545 2 -12.214 4.5 0.807021
546 2 -11.2179 4.5 0.802196
610 2 -10.2216 4.5 0.797405
611 2 -9.22518 4.5 0.792701
679 2 -8.22858 4.5 0.788149
680 2 -7.23179 4.5 0.783819
752 2 -6.23479 4.5 0.779788
753 2 -5.23758 4.5 0.776136
828 2 -4.24017 4.5 0.772941
829 2 -3.24257 4.5 0.770278
903 2 -2.24482 4.5 0.768216
904 2 -1.24694 4.5 0.766808
974 2 -0.248989 4.5 0.766094
975 2 0.748989 4.5 0.766094
1041 2 1.74694 4.5 0.766808
1042 2 2.74482 4.5 0.768216
1104 2 3.74257 4.5 0.770278
1105 2 4.74017 4.5 0.772941
1163 2 5.73758 4.5 0.776136
1164 2 6.73479 4.5 0.779788
1218 2 7.73179 4.5 0.783819
1219 2 8.72858 4.5 0.788149
1269 2 9.72518 4.5 0.792701
1270 2 10.7216 4.5 0.797405
1316 2 11.7179 4.5 0.802196
1317 2 12.714 4.5 0.807021
1359 2 13.71 4.5 0.81183
1360 2 14.706 4.5 0.816586
1398 2 15.7019 4.5 0.821257
1399 2 16.6978 4.5 0.825819
1433 2 17.6936 4.5 0.830253
1434 2 18.6895 4.5 0.834548
1465 2 19.6855 4.5 0.838695
376 2 -19.1855 5.5 0.838695
377 2 -18.1895 5.5 0.834548
429 2 -17.1936 5.5 0.830253
430 2 -16.1978 5.5 0.825819
486 2 -15.2019 5.5 0.821257
487 2 -14.206 5.5 0.816586
547 2 -13.21 5.5 0.81183
548 2 -12.214 5.5 0.807021
612 2 -11.2179 5.5 0.802196
613 2 -10.2216 5.5 0.797405
681 2 -9.22518 5.5 0.792701
682 2 -8.22858 5.5 0.788149
754 2 -7.23179 5.5 0.783819
755 2 -6.23479 5.5 0.779788
830 2 -5.23758 5.5 0.776136
831 2 -4.24017 5.5 0.772941
905 2 -3.24257 5.5 0.770278
906 2 -2.24482 5.5 0.768216
976 2 -1.24694 5.5 0.766808
977 2 -0.248989 5.5 0.766094
1043 2 0.748989 5.5 0.766094
1044 2 1.74694 5.5 0.766808
1106 2 2.74482 5.5 0.768216
1107 2 3.74257 5.5 0.770278
1165 2 4.74017 5.5 0.772941
1166 2 5.73758 5.5 0.776136
1220 2 6.73479 5.5 0.779788
1221 2 7.73179 5.5 0.783819
1271 2 8.72858 5.5 0.788149
1272 2 9.72518 5.5 0.792701
1318 2 10.7216 5.5 0.797405
1319 2 11.7179 5.5 0.802196
1361 2 12.714 5.5 0.807021
1362 2 13.71 5.5 0.81183
1400 2 14.706 5.5 0.816586
1401 2 15.7019 5.5 0.821257
1435 2 16.6978 5.5 0.825819
1436 2 17.6936 5.5 0.830253
1466 2 18.6895 5.5 0.834548
1467 2 19.6855 5.5 0.838695
378 2 -19.1855 6.5 0.838695
431 2 -18.1895 6.5 0.834548