LAMMPS (15 Jun 2023)
OMP_NUM_THREADS environment is not set. Defaulting to 1 thread. (src/comm.cpp:98)
  using 1 OpenMP thread(s) per MPI task
Loaded 1 plugins from C:\Users\noae1\AppData\Local\LAMMPS 64-bit 15Jun2023\plugins
package omp 4
set 4 OpenMP thread(s) per MPI task
using multi-threaded neighbor list subroutines
# ---------- Initialize simulation ---------------------
units lj
atom_style atomic
dimension  3
boundary   p p p
read_data C:/Users/noae1/lammps/results/dislocation1_brownian_rcut_0.932/output/temperature_0.0001_s_1_rstart_0.5_timestep_1e-05_dumpstep_100_nstep_1000/mid_input/loc_test.data
Reading data file ...
  orthogonal box = (-20 -20 0) to (20 20 41.0122)
  1 by 1 by 1 MPI processor grid
  reading atoms ...
  91200 atoms
  read_data CPU = 0.299 seconds
mass * 1.0
group immobile type 2
10960 atoms in group immobile
group mobile type 1
80240 atoms in group mobile

pair_style table linear 10000
pair_coeff * * potential.table power_law 0.932
Reading pair table potential file potential.table with DATE: 2024-9-24

velocity mobile create 0.0001 87287 dist gaussian
velocity immobile set 0.0 0.0 0.0
compute displ all displace/atom
fix 1 all nve
fix 2 mobile brownian 0.0001 3213 gamma_t 1.0
fix 3 mobile recenter INIT INIT INIT
fix 4 immobile setforce 0.0 0.0 0.0
#--------- Dump file ------------------
thermo_style custom step pe ke temp press
thermo 10000
dump 1 all custom 10000 dump.* id type x y z

# --------- Run -------------
timestep 0.001
run 1000000
Generated 0 of 1 mixed pair_coeff terms from geometric mixing rule
Last active /omp style is pair_style table/omp
WARNING: One or more atoms are time integrated more than once (src/modify.cpp:293)
Neighbor list info ...
  update: every = 1 steps, delay = 0 steps, check = yes
  max neighbors/atom: 2000, page size: 100000
  master list distance cutoff = 1.232
  ghost atom cutoff = 1.232
  binsize = 0.616, bins = 65 65 67
  1 neighbor lists, perpetual/occasional/extra = 1 0 0
  (1) pair table/omp, perpetual
      attributes: half, newton on, omp
      pair build: half/bin/atomonly/newton/omp
      stencil: half/bin/3d
      bin: standard
Per MPI rank memory allocation (min/avg/max) = 36.83 | 36.83 | 36.83 Mbytes
   Step         PotEng         KinEng          Temp          Press     
         0   7.2546556e+12  0.00013197204  8.7982324e-05  1.0150112e+15
     10000   7.2546556e+12  0.26743706     0.17829333     1.0150112e+15
     20000   7.2546556e+12  0.26793761     0.17862703     1.0150112e+15
     30000   7.2546556e+12  0.26801321     0.17867743     1.0150112e+15
     40000   7.2546556e+12  0.26759782     0.1784005      1.0150112e+15
     50000   7.2546556e+12  0.26742309     0.17828402     1.0150112e+15
     60000   7.2546556e+12  0.2677904      0.17852889     1.0150112e+15
     70000   7.2546556e+12  0.26689638     0.17793287     1.0150112e+15
     80000   7.2546556e+12  0.26775643     0.17850624     1.0150112e+15
     90000   7.2546556e+12  0.26743106     0.17828933     1.0150112e+15
    100000   7.2546556e+12  0.26810844     0.17874092     1.0150112e+15
    110000   7.2546556e+12  0.26775649     0.17850628     1.0150112e+15
    120000   7.2546556e+12  0.26838909     0.17892802     1.0150112e+15
    130000   7.2546556e+12  0.26760005     0.17840199     1.0150112e+15
    140000   7.2546556e+12  0.268621       0.17908263     1.0150112e+15
    150000   7.2546556e+12  0.26719187     0.17812987     1.0150112e+15
    160000   7.2546556e+12  0.26795743     0.17864025     1.0150112e+15
    170000   7.2546556e+12  0.2667427      0.17783041     1.0150112e+15
    180000   7.2546556e+12  0.26871634     0.17914619     1.0150112e+15
    190000   7.2546556e+12  0.26785621     0.17857276     1.0150112e+15
    200000   7.2546556e+12  0.26660559     0.17773901     1.0150112e+15
    210000   7.2546556e+12  0.26751336     0.17834419     1.0150112e+15
    220000   7.2546556e+12  0.26786277     0.17857714     1.0150112e+15
    230000   7.2546556e+12  0.26724725     0.17816679     1.0150112e+15
    240000   7.2546556e+12  0.26720296     0.17813726     1.0150112e+15
    250000   7.2546556e+12  0.26799781     0.17866717     1.0150112e+15
    260000   7.2546556e+12  0.26720054     0.17813564     1.0150112e+15
    270000   7.2546556e+12  0.26795542     0.1786389      1.0150112e+15
    280000   7.2546556e+12  0.26770217     0.17847007     1.0150112e+15
    290000   7.2546556e+12  0.2678697      0.17858176     1.0150112e+15
    300000   7.2546556e+12  0.26771955     0.17848166     1.0150112e+15
    310000   7.2546556e+12  0.26741386     0.17827786     1.0150112e+15
    320000   7.2546556e+12  0.26830235     0.1788702      1.0150112e+15
    330000   7.2546556e+12  0.26743043     0.17828891     1.0150112e+15
    340000   7.2546556e+12  0.2675248      0.17835182     1.0150112e+15
    350000   7.2546556e+12  0.26844247     0.17896361     1.0150112e+15
    360000   7.2546556e+12  0.26786176     0.17857647     1.0150112e+15
    370000   7.2546556e+12  0.26832931     0.17888817     1.0150112e+15
    380000   7.2546556e+12  0.26751806     0.17834733     1.0150112e+15
    390000   7.2546556e+12  0.26800181     0.17866983     1.0150112e+15
    400000   7.2546556e+12  0.26718949     0.17812828     1.0150112e+15
    410000   7.2546556e+12  0.26819542     0.1787989      1.0150112e+15
    420000   7.2546556e+12  0.26795999     0.17864195     1.0150112e+15
    430000   7.2546556e+12  0.2675188      0.17834782     1.0150112e+15
    440000   7.2546556e+12  0.26750289     0.17833722     1.0150112e+15
    450000   7.2546556e+12  0.2681484      0.17876756     1.0150112e+15
    460000   7.2546556e+12  0.26812621     0.17875277     1.0150112e+15
    470000   7.2546556e+12  0.26749842     0.17833423     1.0150112e+15
    480000   7.2546556e+12  0.26745099     0.17830262     1.0150112e+15
    490000   7.2546556e+12  0.26778407     0.17852467     1.0150112e+15
    500000   7.2546556e+12  0.26693287     0.1779572      1.0150112e+15
    510000   7.2546556e+12  0.26733666     0.17822639     1.0150112e+15
    520000   7.2546556e+12  0.26745747     0.17830693     1.0150112e+15
    530000   7.2546556e+12  0.26777925     0.17852146     1.0150112e+15
    540000   7.2546556e+12  0.26713175     0.17808978     1.0150112e+15
    550000   7.2546556e+12  0.26790958     0.17860834     1.0150112e+15
    560000   7.2546556e+12  0.26752693     0.17835324     1.0150112e+15
    570000   7.2546556e+12  0.26765171     0.17843643     1.0150112e+15
    580000   7.2546556e+12  0.26756282     0.17837717     1.0150112e+15
    590000   7.2546556e+12  0.26791517     0.17861207     1.0150112e+15
    600000   7.2546556e+12  0.26754044     0.17836225     1.0150112e+15
    610000   7.2546556e+12  0.26822305     0.17881733     1.0150112e+15
    620000   7.2546556e+12  0.26758125     0.17838945     1.0150112e+15
    630000   7.2546556e+12  0.26809204     0.17872999     1.0150112e+15
    640000   7.2546556e+12  0.26657108     0.177716       1.0150112e+15
    650000   7.2546556e+12  0.26844932     0.17896818     1.0150112e+15
    660000   7.2546556e+12  0.26803897     0.17869461     1.0150112e+15
    670000   7.2546556e+12  0.26703213     0.17802337     1.0150112e+15
    680000   7.2546556e+12  0.26720372     0.17813777     1.0150112e+15
    690000   7.2546556e+12  0.26726931     0.17818149     1.0150112e+15
    700000   7.2546556e+12  0.2675218      0.17834982     1.0150112e+15
    710000   7.2546556e+12  0.26741745     0.17828026     1.0150112e+15
    720000   7.2546556e+12  0.26791492     0.17861191     1.0150112e+15
    730000   7.2546556e+12  0.26768353     0.17845764     1.0150112e+15
    740000   7.2546556e+12  0.26739283     0.17826384     1.0150112e+15
    750000   7.2546556e+12  0.26768669     0.17845975     1.0150112e+15
    760000   7.2546556e+12  0.26627639     0.17751954     1.0150112e+15
    770000   7.2546556e+12  0.26917378     0.17945116     1.0150112e+15
    780000   7.2546556e+12  0.26785926     0.1785748      1.0150112e+15
    790000   7.2546556e+12  0.26822102     0.17881598     1.0150112e+15
    800000   7.2546556e+12  0.26795213     0.17863671     1.0150112e+15
    810000   7.2546556e+12  0.26711024     0.17807545     1.0150112e+15
    820000   7.2546556e+12  0.26723358     0.17815767     1.0150112e+15
    830000   7.2546556e+12  0.26803351     0.17869097     1.0150112e+15
    840000   7.2546556e+12  0.26748757     0.178327       1.0150112e+15
    850000   7.2546556e+12  0.26818127     0.17878948     1.0150112e+15
    860000   7.2546556e+12  0.26720927     0.17814146     1.0150112e+15
    870000   7.2546556e+12  0.26828753     0.17886031     1.0150112e+15
    880000   7.2546556e+12  0.26791646     0.17861293     1.0150112e+15
    890000   7.2546556e+12  0.26746248     0.17831027     1.0150112e+15
    900000   7.2546556e+12  0.26770034     0.17846885     1.0150112e+15
    910000   7.2546556e+12  0.2675845      0.17839162     1.0150112e+15
    920000   7.2546556e+12  0.26826286     0.17884387     1.0150112e+15
    930000   7.2546556e+12  0.26852848     0.17902095     1.0150112e+15
    940000   7.2546556e+12  0.26785013     0.17856871     1.0150112e+15
    950000   7.2546556e+12  0.26745436     0.17830486     1.0150112e+15
    960000   7.2546556e+12  0.26785222     0.17857011     1.0150112e+15
    970000   7.2546556e+12  0.26699811     0.17800069     1.0150112e+15
    980000   7.2546556e+12  0.26673225     0.17782345     1.0150112e+15
    990000   7.2546556e+12  0.26732371     0.17821776     1.0150112e+15
   1000000   7.2546556e+12  0.26788142     0.17858957     1.0150112e+15
Loop time of 11311.2 on 4 procs for 1000000 steps with 91200 atoms

Performance: 7638.435 tau/day, 88.408 timesteps/s, 8.063 Matom-step/s
183.9% CPU use with 1 MPI tasks x 4 OpenMP threads

MPI task timing breakdown:
Section |  min time  |  avg time  |  max time  |%varavg| %total
---------------------------------------------------------------
Pair    | 2432.5     | 2432.5     | 2432.5     |   0.0 | 21.51
Neigh   | 10.346     | 10.346     | 10.346     |   0.0 |  0.09
Comm    | 406.19     | 406.19     | 406.19     |   0.0 |  3.59
Output  | 20.359     | 20.359     | 20.359     |   0.0 |  0.18
Modify  | 8013.9     | 8013.9     | 8013.9     |   0.0 | 70.85
Other   |            | 427.9      |            |       |  3.78

Nlocal:          91200 ave       91200 max       91200 min
Histogram: 1 0 0 0 0 0 0 0 0 0
Nghost:          15326 ave       15326 max       15326 min
Histogram: 1 0 0 0 0 0 0 0 0 0
Neighs:         540664 ave      540664 max      540664 min
Histogram: 1 0 0 0 0 0 0 0 0 0

Total # of neighbors = 540664
Ave neighs/atom = 5.9283333
Neighbor list builds = 702
Dangerous builds = 0
Total wall time: 3:08:31
