ITEM: TIMESTEP
10000000
ITEM: NUMBER OF ATOMS
91200
ITEM: BOX BOUNDS pp pp pp
-2.0000000000000000e+01 2.0000000000000000e+01
-2.0000000000000000e+01 2.0000000000000000e+01
0.0000000000000000e+00 4.1012200000000000e+01
ITEM: ATOMS id type x y z
1 2 -19.425 -19.6387 0.487247
2 2 -18.4245 -19.6408 0.486294
3 2 -17.424 -19.643 0.485132
7 2 -16.4237 -19.6453 0.48373
8 2 -15.4235 -19.6478 0.482054
16 2 -14.4233 -19.6503 0.480067
17 2 -13.4233 -19.653 0.477727
29 2 -12.4234 -19.6558 0.474991
30 2 -11.4236 -19.6588 0.471814
46 2 -10.4239 -19.6619 0.46815
47 2 -9.42429 -19.6651 0.463954
67 2 -8.42473 -19.6684 0.459185
68 2 -7.42519 -19.6719 0.453807
92 2 -6.42564 -19.6755 0.44779
93 2 -5.42604 -19.6792 0.441119
121 2 -4.42633 -19.6831 0.433791
122 2 -3.42645 -19.687 0.425819
154 2 -2.42637 -19.6909 0.417235
155 2 -1.42601 -19.6949 0.408089
191 2 -0.425349 -19.699 0.39845
192 2 0.575667 -19.7031 0.388402
232 2 1.57706 -19.7071 0.378042
233 2 2.57884 -19.7111 0.367475
277 2 3.58102 -19.7151 0.356808
278 2 4.58356 -19.719 0.346149
326 2 5.58646 -19.7228 0.335596
327 2 6.58967 -19.7265 0.325241
379 2 7.59314 -19.7301 0.315161
380 2 8.59684 -19.7336 0.30542
436 2 9.60071 -19.7369 0.296067
437 2 10.6047 -19.7402 0.287138
497 2 11.6088 -19.7433 0.278655
498 2 12.6129 -19.7462 0.270629
562 2 13.6169 -19.749 0.263061
4 2 -19.425 -18.6387 0.487247
5 2 -18.4245 -18.6408 0.486294
9 2 -17.424 -18.643 0.485132
10 2 -16.4237 -18.6453 0.48373
18 2 -15.4235 -18.6478 0.482054
19 2 -14.4233 -18.6503 0.480067
31 2 -13.4233 -18.653 0.477727
32 2 -12.4234 -18.6558 0.474991
48 2 -11.4236 -18.6588 0.471814
49 2 -10.4239 -18.6619 0.46815
69 2 -9.42429 -18.6651 0.463954
70 2 -8.42473 -18.6684 0.459185
94 2 -7.42519 -18.6719 0.453807
95 2 -6.42564 -18.6755 0.44779
123 2 -5.42604 -18.6792 0.441119
124 2 -4.42633 -18.6831 0.433791
156 2 -3.42645 -18.687 0.425819
157 2 -2.42637 -18.6909 0.417235
193 2 -1.42601 -18.6949 0.408089
194 2 -0.425349 -18.699 0.39845
234 2 0.575667 -18.7031 0.388402
235 2 1.57706 -18.7071 0.378042
279 2 2.57884 -18.7111 0.367475
280 2 3.58102 -18.7151 0.356808
328 2 4.58356 -18.719 0.346149
329 2 5.58646 -18.7228 0.335596
381 2 6.58967 -18.7265 0.325241
382 2 7.59314 -18.7301 0.315161
438 2 8.59684 -18.7336 0.30542
439 2 9.60071 -18.7369 0.296067
499 2 10.6047 -18.7402 0.287138
500 2 11.6088 -18.7433 0.278655
564 2 12.6129 -18.7462 0.270629
565 2 13.6169 -18.749 0.263061
6 2 -19.425 -17.6387 0.487247
11 2 -18.4245 -17.6408 0.486294
12 2 -17.424 -17.643 0.485132
20 2 -16.4237 -17.6453 0.48373
21 2 -15.4235 -17.6478 0.482054
33 2 -14.4233 -17.6503 0.480067
34 2 -13.4233 -17.653 0.477727
50 2 -12.4234 -17.6558 0.474991
51 2 -11.4236 -17.6588 0.471814
71 2 -10.4239 -17.6619 0.46815
72 2 -9.42429 -17.6651 0.463954
96 2 -8.42473 -17.6684 0.459185
97 2 -7.42519 -17.6719 0.453807
125 2 -6.42564 -17.6755 0.44779
126 2 -5.42604 -17.6792 0.441119
158 2 -4.42633 -17.6831 0.433791
159 2 -3.42645 -17.687 0.425819
195 2 -2.42637 -17.6909 0.417235
196 2 -1.42601 -17.6949 0.408089
236 2 -0.425349 -17.699 0.39845
237 2 0.575667 -17.7031 0.388402
281 2 1.57706 -17.7071 0.378042
282 2 2.57884 -17.7111 0.367475
330 2 3.58102 -17.7151 0.356808
331 2 4.58356 -17.719 0.346149
383 2 5.58646 -17.7228 0.335596
384 2 6.58967 -17.7265 0.325241
440 2 7.59314 -17.7301 0.315161
441 2 8.59684 -17.7336 0.30542
501 2 9.60071 -17.7369 0.296067
502 2 10.6047 -17.7402 0.287138
566 2 11.6088 -17.7433 0.278655
567 2 12.6129 -17.7462 0.270629
635 2 13.6169 -17.749 0.263061
13 2 -19.425 -16.6387 0.487247
14 2 -18.4245 -16.6408 0.486294
22 2 -17.424 -16.643 0.485132
23 2 -16.4237 -16.6453 0.48373
35 2 -15.4235 -16.6478 0.482054
36 2 -14.4233 -16.6503 0.480067
52 2 -13.4233 -16.653 0.477727
53 2 -12.4234 -16.6558 0.474991
73 2 -11.4236 -16.6588 0.471814
74 2 -10.4239 -16.6619 0.46815
98 2 -9.42429 -16.6651 0.463954
99 2 -8.42473 -16.6684 0.459185
127 2 -7.42519 -16.6719 0.453807
128 2 -6.42564 -16.6755 0.44779
160 2 -5.42604 -16.6792 0.441119
161 2 -4.42633 -16.6831 0.433791
197 2 -3.42645 -16.687 0.425819
198 2 -2.42637 -16.6909 0.417235
238 2 -1.42601 -16.6949 0.408089
239 2 -0.425349 -16.699 0.39845
283 2 0.575667 -16.7031 0.388402
284 2 1.57706 -16.7071 0.378042
332 2 2.57884 -16.7111 0.367475
333 2 3.58102 -16.7151 0.356808
385 2 4.58356 -16.719 0.346149
386 2 5.58646 -16.7228 0.335596
442 2 6.58967 -16.7265 0.325241
443 2 7.59314 -16.7301 0.315161
503 2 8.59684 -16.7336 0.30542
504 2 9.60071 -16.7369 0.296067
568 2 10.6047 -16.7402 0.287138
569 2 11.6088 -16.7433 0.278655
637 2 12.6129 -16.7462 0.270629
638 2 13.6169 -16.749 0.263061
15 2 -19.425 -15.6387 0.487247
24 2 -18.4245 -15.6408 0.486294
25 2 -17.424 -15.643 0.485132
37 2 -16.4237 -15.6453 0.48373
38 2 -15.4235 -15.6478 0.482054
54 2 -14.4233 -15.6503 0.480067
55 2 -13.4233 -15.653 0.477727
75 2 -12.4234 -15.6558 0.474991
76 2 -11.4236 -15.6588 0.471814
100 2 -10.4239 -15.6619 0.46815
101 2 -9.42429 -15.6651 0.463954
129 2 -8.42473 -15.6684 0.459185
130 2 -7.42519 -15.6719 0.453807
162 2 -6.42564 -15.6755 0.44779
163 2 -5.42604 -15.6792 0.441119
199 2 -4.42633 -15.6831 0.433791
200 2 -3.42645 -15.687 0.425819
240 2 -2.42637 -15.6909 0.417235
241 2 -1.42601 -15.6949 0.408089
285 2 -0.425349 -15.699 0.39845
286 2 0.575667 -15.7031 0.388402
334 2 1.57706 -15.7071 0.378042
335 2 2.57884 -15.7111 0.367475
387 2 3.58102 -15.7151 0.356808
388 2 4.58356 -15.719 0.346149
444 2 5.58646 -15.7228 0.335596
445 2 6.58967 -15.7265 0.325241
505 2 7.59314 -15.7301 0.315161
506 2 8.59684 -15.7336 0.30542
570 2 9.60071 -15.7369 0.296067
571 2 10.6047 -15.7402 0.287138
639 2 11.6088 -15.7433 0.278655
640 2 12.6129 -15.7462 0.270629
712 2 13.6169 -15.749 0.263061
26 2 -19.425 -14.6387 0.487247
27 2 -18.4245 -14.6408 0.486294
39 2 -17.424 -14.643 0.485132
40 2 -16.4237 -14.6453 0.48373
56 2 -15.4235 -14.6478 0.482054
57 2 -14.4233 -14.6503 0.480067
77 2 -13.4233 -14.653 0.477727
78 2 -12.4234 -14.6558 0.474991
102 2 -11.4236 -14.6588 0.471814
103 2 -10.4239 -14.6619 0.46815
131 2 -9.42429 -14.6651 0.463954
132 2 -8.42473 -14.6684 0.459185
164 2 -7.42519 -14.6719 0.453807
165 2 -6.42564 -14.6755 0.44779
201 2 -5.42604 -14.6792 0.441119
202 2 -4.42633 -14.6831 0.433791
242 2 -3.42645 -14.687 0.425819
243 2 -2.42637 -14.6909 0.417235
287 2 -1.42601 -14.6949 0.408089
288 2 -0.425349 -14.699 0.39845
336 2 0.575667 -14.7031 0.388402
337 2 1.57706 -14.7071 0.378042
389 2 2.57884 -14.7111 0.367475
390 2 3.58102 -14.7151 0.356808
446 2 4.58356 -14.719 0.346149
447 2 5.58646 -14.7228 0.335596
507 2 6.58967 -14.7265 0.325241
508 2 7.59314 -14.7301 0.315161
572 2 8.59684 -14.7336 0.30542
573 2 9.60071 -14.7369 0.296067
641 2 10.6047 -14.7402 0.287138
642 2 11.6088 -14.7433 0.278655
714 2 12.6129 -14.7462 0.270629
715 2 13.6169 -14.749 0.263061
28 2 -19.425 -13.6387 0.487247
41 2 -18.4245 -13.6408 0.486294
42 2 -17.424 -13.643 0.485132
58 2 -16.4237 -13.6453 0.48373
59 2 -15.4235 -13.6478 0.482054
79 2 -14.4233 -13.6503 0.480067
80 2 -13.4233 -13.653 0.477727
104 2 -12.4234 -13.6558 0.474991
105 2 -11.4236 -13.6588 0.471814
133 2 -10.4239 -13.6619 0.46815
134 2 -9.42429 -13.6651 0.463954
166 2 -8.42473 -13.6684 0.459185
167 2 -7.42519 -13.6719 0.453807
203 2 -6.42564 -13.6755 0.44779
204 2 -5.42604 -13.6792 0.441119
244 2 -4.42633 -13.6831 0.433791
245 2 -3.42645 -13.687 0.425819
289 2 -2.42637 -13.6909 0.417235
290 2 -1.42601 -13.6949 0.408089
338 2 -0.425349 -13.699 0.39845
339 2 0.575667 -13.7031 0.388402
391 2 1.57706 -13.7071 0.378042
392 2 2.57884 -13.7111 0.367475
448 2 3.58102 -13.7151 0.356808
449 2 4.58356 -13.719 0.346149
509 2 5.58646 -13.7228 0.335596
510 2 6.58967 -13.7265 0.325241
574 2 7.59314 -13.7301 0.315161
575 2 8.59684 -13.7336 0.30542
643 2 9.60071 -13.7369 0.296067
644 2 10.6047 -13.7402 0.287138
716 2 11.6088 -13.7433 0.278655
717 2 12.6129 -13.7462 0.270629
792 2 13.6169 -13.749 0.263061
43 2 -19.425 -12.6387 0.487247
44 2 -18.4245 -12.6408 0.486294
60 2 -17.424 -12.643 0.485132
61 2 -16.4237 -12.6453 0.48373
81 2 -15.4235 -12.6478 0.482054
82 2 -14.4233 -12.6503 0.480067
106 2 -13.4233 -12.653 0.477727
107 2 -12.4234 -12.6558 0.474991
135 2 -11.4236 -12.6588 0.471814
136 2 -10.4239 -12.6619 0.46815
168 2 -9.42429 -12.6651 0.463954
169 2 -8.42473 -12.6684 0.459185
205 2 -7.42519 -12.6719 0.453807
206 2 -6.42564 -12.6755 0.44779
246 2 -5.42604 -12.6792 0.441119
247 2 -4.42633 -12.6831 0.433791
291 2 -3.42645 -12.687 0.425819
292 2 -2.42637 -12.6909 0.417235
340 2 -1.42601 -12.6949 0.408089
341 2 -0.425349 -12.699 0.39845
393 2 0.575667 -12.7031 0.388402
394 2 1.57706 -12.7071 0.378042
450 2 2.57884 -12.7111 0.367475
451 2 3.58102 -12.7151 0.356808
511 2 4.58356 -12.719 0.346149
512 2 5.58646 -12.7228 0.335596
576 2 6.58967 -12.7265 0.325241
577 2 7.59314 -12.7301 0.315161
645 2 8.59684 -12.7336 0.30542
646 2 9.60071 -12.7369 0.296067
718 2 10.6047 -12.7402 0.287138
719 2 11.6088 -12.7433 0.278655
794 2 12.6129 -12.7462 0.270629
795 2 13.6169 -12.749 0.263061
45 2 -19.425 -11.6387 0.487247
62 2 -18.4245 -11.6408 0.486294
63 2 -17.424 -11.643 0.485132
83 2 -16.4237 -11.6453 0.48373
84 2 -15.4235 -11.6478 0.482054
108 2 -14.4233 -11.6503 0.480067
109 2 -13.4233 -11.653 0.477727
137 2 -12.4234 -11.6558 0.474991
138 2 -11.4236 -11.6588 0.471814
170 2 -10.4239 -11.6619 0.46815
171 2 -9.42429 -11.6651 0.463954
207 2 -8.42473 -11.6684 0.459185
208 2 -7.42519 -11.6719 0.453807
248 2 -6.42564 -11.6755 0.44779
249 2 -5.42604 -11.6792 0.441119
293 2 -4.42633 -11.6831 0.433791
294 2 -3.42645 -11.687 0.425819
342 2 -2.42637 -11.6909 0.417235
343 2 -1.42601 -11.6949 0.408089
395 2 -0.425349 -11.699 0.39845
396 2 0.575667 -11.7031 0.388402
452 2 1.57706 -11.7071 0.378042
453 2 2.57884 -11.7111 0.367475
513 2 3.58102 -11.7151 0.356808
514 2 4.58356 -11.719 0.346149
578 2 5.58646 -11.7228 0.335596
579 2 6.58967 -11.7265 0.325241
647 2 7.59314 -11.7301 0.315161
648 2 8.59684 -11.7336 0.30542
720 2 9.60071 -11.7369 0.296067
721 2 10.6047 -11.7402 0.287138
796 2 11.6088 -11.7433 0.278655
797 2 12.6129 -11.7462 0.270629
871 2 13.6169 -11.749 0.263061
64 2 -19.425 -10.6387 0.487247
65 2 -18.4245 -10.6408 0.486294
85 2 -17.424 -10.643 0.485132
86 2 -16.4237 -10.6453 0.48373
110 2 -15.4235 -10.6478 0.482054
111 2 -14.4233 -10.6503 0.480067
139 2 -13.4233 -10.653 0.477727
140 2 -12.4234 -10.6558 0.474991
172 2 -11.4236 -10.6588 0.471814
173 2 -10.4239 -10.6619 0.46815
209 2 -9.42429 -10.6651 0.463954
210 2 -8.42473 -10.6684 0.459185
250 2 -7.42519 -10.6719 0.453807
251 2 -6.42564 -10.6755 0.44779
295 2 -5.42604 -10.6792 0.441119
296 2 -4.42633 -10.6831 0.433791
344 2 -3.42645 -10.687 0.425819
345 2 -2.42637 -10.6909 0.417235
397 2 -1.42601 -10.6949 0.408089
398 2 -0.425349 -10.699 0.39845
454 2 0.575667 -10.7031 0.388402
455 2 1.57706 -10.7071 0.378042
515 2 2.57884 -10.7111 0.367475
516 2 3.58102 -10.7151 0.356808
580 2 4.58356 -10.719 0.346149
581 2 5.58646 -10.7228 0.335596
649 2 6.58967 -10.7265 0.325241
650 2 7.59314 -10.7301 0.315161
722 2 8.59684 -10.7336 0.30542
723 2 9.60071 -10.7369 0.296067
798 2 10.6047 -10.7402 0.287138
799 2 11.6088 -10.7433 0.278655
873 2 12.6129 -10.7462 0.270629
874 2 13.6169 -10.749 0.263061
66 2 -19.425 -9.63871 0.487247
87 2 -18.4245 -9.6408 0.486294
88 2 -17.424 -9.64301 0.485132
112 2 -16.4237 -9.64532 0.48373
113 2 -15.4235 -9.64776 0.482054
141 2 -14.4233 -9.65032 0.480067
142 2 -13.4233 -9.65301 0.477727
174 2 -12.4234 -9.65583 0.474991
175 2 -11.4236 -9.65878 0.471814
211 2 -10.4239 -9.66187 0.46815
212 2 -9.42429 -9.66509 0.463954
252 2 -8.42473 -9.66845 0.459185
253 2 -7.42519 -9.67193 0.453807
297 2 -6.42564 -9.67553 0.44779
298 2 -5.42604 -9.67924 0.441119
346 2 -4.42633 -9.68306 0.433791
347 2 -3.42645 -9.68695 0.425819
399 2 -2.42637 -9.69092 0.417235
400 2 -1.42601 -9.69494 0.408089
456 2 -0.425349 -9.69899 0.39845
457 2 0.575667 -9.70305 0.388402
517 2 1.57706 -9.7071 0.378042
518 2 2.57884 -9.71112 0.367475
582 2 3.58102 -9.71509 0.356808
583 2 4.58356 -9.71899 0.346149
651 2 5.58646 -9.7228 0.335596
652 2 6.58967 -9.72651 0.325241
724 2 7.59314 -9.73011 0.315161
725 2 8.59684 -9.73359 0.30542
800 2 9.60071 -9.73695 0.296067
801 2 10.6047 -9.74017 0.287138
875 2 11.6088 -9.74326 0.278655
876 2 12.6129 -9.74621 0.270629
946 2 13.6169 -9.74903 0.263061
89 2 -19.425 -8.63871 0.487247
90 2 -18.4245 -8.6408 0.486294
114 2 -17.424 -8.64301 0.485132
115 2 -16.4237 -8.64532 0.48373
143 2 -15.4235 -8.64776 0.482054
144 2 -14.4233 -8.65032 0.480067
176 2 -13.4233 -8.65301 0.477727
177 2 -12.4234 -8.65583 0.474991
213 2 -11.4236 -8.65878 0.471814
214 2 -10.4239 -8.66187 0.46815
254 2 -9.42429 -8.66509 0.463954
255 2 -8.42473 -8.66845 0.459185
299 2 -7.42519 -8.67193 0.453807
300 2 -6.42564 -8.67553 0.44779
348 2 -5.42604 -8.67924 0.441119
349 2 -4.42633 -8.68306 0.433791
401 2 -3.42645 -8.68695 0.425819
402 2 -2.42637 -8.69092 0.417235
458 2 -1.42601 -8.69494 0.408089
459 2 -0.425349 -8.69899 0.39845
519 2 0.575667 -8.70305 0.388402
520 2 1.57706 -8.7071 0.378042
584 2 2.57884 -8.71112 0.367475
585 2 3.58102 -8.71509 0.356808
653 2 4.58356 -8.71899 0.346149
654 2 5.58646 -8.7228 0.335596
726 2 6.58967 -8.72651 0.325241
727 2 7.59314 -8.73011 0.315161
802 2 8.59684 -8.73359 0.30542
803 2 9.60071 -8.73695 0.296067
877 2 10.6047 -8.74017 0.287138
878 2 11.6088 -8.74326 0.278655
948 2 12.6129 -8.74621 0.270629
949 2 13.6169 -8.74903 0.263061
91 2 -19.425 -7.63871 0.487247
116 2 -18.4245 -7.6408 0.486294
117 2 -17.424 -7.64301 0.485132
145 2 -16.4237 -7.64532 0.48373
146 2 -15.4235 -7.64776 0.482054
178 2 -14.4233 -7.65032 0.480067
179 2 -13.4233 -7.65301 0.477727
215 2 -12.4234 -7.65583 0.474991
216 2 -11.4236 -7.65878 0.471814
256 2 -10.4239 -7.66187 0.46815
257 2 -9.42429 -7.66509 0.463954
301 2 -8.42473 -7.66845 0.459185
302 2 -7.42519 -7.67193 0.453807
350 2 -6.42564 -7.67553 0.44779
351 2 -5.42604 -7.67924 0.441119
403 2 -4.42633 -7.68306 0.433791
404 2 -3.42645 -7.68695 0.425819
460 2 -2.42637 -7.69092 0.417235
461 2 -1.42601 -7.69494 0.408089
521 2 -0.425349 -7.69899 0.39845
522 2 0.575667 -7.70305 0.388402
586 2 1.57706 -7.7071 0.378042
587 2 2.57884 -7.71112 0.367475
655 2 3.58102 -7.71509 0.356808
656 2 4.58356 -7.71899 0.346149
728 2 5.58646 -7.7228 0.335596
729 2 6.58967 -7.72651 0.325241
804 2 7.59314 -7.73011 0.315161
805 2 8.59684 -7.73359 0.30542
879 2 9.60071 -7.73695 0.296067
880 2 10.6047 -7.74017 0.287138
950 2 11.6088 -7.74326 0.278655
951 2 12.6129 -7.74621 0.270629
1017 2 13.6169 -7.74903 0.263061
118 2 -19.425 -6.63871 0.487247
119 2 -18.4245 -6.6408 0.486294
147 2 -17.424 -6.64301 0.485132
148 2 -16.4237 -6.64532 0.48373
180 2 -15.4235 -6.64776 0.482054
181 2 -14.4233 -6.65032 0.480067
217 2 -13.4233 -6.65301 0.477727
218 2 -12.4234 -6.65583 0.474991
258 2 -11.4236 -6.65878 0.471814
259 2 -10.4239 -6.66187 0.46815
303 2 -9.42429 -6.66509 0.463954
304 2 -8.42473 -6.66845 0.459185
352 2 -7.42519 -6.67193 0.453807
353 2 -6.42564 -6.67553 0.44779
405 2 -5.42604 -6.67924 0.441119
406 2 -4.42633 -6.68306 0.433791
462 2 -3.42645 -6.68695 0.425819
463 2 -2.42637 -6.69092 0.417235
523 2 -1.42601 -6.69494 0.408089
524 2 -0.425349 -6.69899 0.39845
588 2 0.575667 -6.70305 0.388402
589 2 1.57706 -6.7071 0.378042
657 2 2.57884 -6.71112 0.367475
658 2 3.58102 -6.71509 0.356808
730 2 4.58356 -6.71899 0.346149
731 2 5.58646 -6.7228 0.335596
806 2 6.58967 -6.72651 0.325241
807 2 7.59314 -6.73011 0.315161
881 2 8.59684 -6.73359 0.30542
882 2 9.60071 -6.73695 0.296067
952 2 10.6047 -6.74017 0.287138
953 2 11.6088 -6.74326 0.278655
1019 2 12.6129 -6.74621 0.270629
1020 2 13.6169 -6.74903 0.263061
120 2 -19.425 -5.63871 0.487247
149 2 -18.4245 -5.6408 0.486294
150 2 -17.424 -5.64301 0.485132
182 2 -16.4237 -5.64532 0.48373
183 2 -15.4235 -5.64776 0.482054
219 2 -14.4233 -5.65032 0.480067
220 2 -13.4233 -5.65301 0.477727
260 2 -12.4234 -5.65583 0.474991
261 2 -11.4236 -5.65878 0.471814
305 2 -10.4239 -5.66187 0.46815
306 2 -9.42429 -5.66509 0.463954
354 2 -8.42473 -5.66845 0.459185
355 2 -7.42519 -5.67193 0.453807
407 2 -6.42564 -5.67553 0.44779
408 2 -5.42604 -5.67924 0.441119
464 2 -4.42633 -5.68306 0.433791
465 2 -3.42645 -5.68695 0.425819
525 2 -2.42637 -5.69092 0.417235
526 2 -1.42601 -5.69494 0.408089
590 2 -0.425349 -5.69899 0.39845
591 2 0.575667 -5.70305 0.388402
659 2 1.57706 -5.7071 0.378042
660 2 2.57884 -5.71112 0.367475
732 2 3.58102 -5.71509 0.356808
733 2 4.58356 -5.71899 0.346149
808 2 5.58646 -5.7228 0.335596
809 2 6.58967 -5.72651 0.325241
883 2 7.59314 -5.73011 0.315161
884 2 8.59684 -5.73359 0.30542
954 2 9.60071 -5.73695 0.296067
955 2 10.6047 -5.74017 0.287138
1021 2 11.6088 -5.74326 0.278655
1022 2 12.6129 -5.74621 0.270629
1084 2 13.6169 -5.74903 0.263061
151 2 -19.425 -4.63871 0.487247
152 2 -18.4245 -4.6408 0.486294
184 2 -17.424 -4.64301 0.485132
185 2 -16.4237 -4.64532 0.48373
221 2 -15.4235 -4.64776 0.482054
222 2 -14.4233 -4.65032 0.480067
262 2 -13.4233 -4.65301 0.477727
263 2 -12.4234 -4.65583 0.474991
307 2 -11.4236 -4.65878 0.471814
308 2 -10.4239 -4.66187 0.46815
356 2 -9.42429 -4.66509 0.463954
357 2 -8.42473 -4.66845 0.459185
409 2 -7.42519 -4.67193 0.453807
410 2 -6.42564 -4.67553 0.44779
466 2 -5.42604 -4.67924 0.441119
467 2 -4.42633 -4.68306 0.433791
527 2 -3.42645 -4.68695 0.425819
528 2 -2.42637 -4.69092 0.417235
592 2 -1.42601 -4.69494 0.408089
593 2 -0.425349 -4.69899 0.39845
661 2 0.575667 -4.70305 0.388402
662 2 1.57706 -4.7071 0.378042
734 2 2.57884 -4.71112 0.367475
735 2 3.58102 -4.71509 0.356808
810 2 4.58356 -4.71899 0.346149
811 2 5.58646 -4.7228 0.335596
885 2 6.58967 -4.72651 0.325241
886 2 7.59314 -4.73011 0.315161
956 2 8.59684 -4.73359 0.30542
957 2 9.60071 -4.73695 0.296067
1023 2 10.6047 -4.74017 0.287138
1024 2 11.6088 -4.74326 0.278655
1086 2 12.6129 -4.74621 0.270629
1087 2 13.6169 -4.74903 0.263061
153 2 -19.425 -3.63871 0.487247
186 2 -18.4245 -3.6408 0.486294
187 2 -17.424 -3.64301 0.485132
223 2 -16.4237 -3.64532 0.48373
224 2 -15.4235 -3.64776 0.482054
264 2 -14.4233 -3.65032 0.480067
265 2 -13.4233 -3.65301 0.477727
309 2 -12.4234 -3.65583 0.474991
310 2 -11.4236 -3.65878 0.471814
358 2 -10.4239 -3.66187 0.46815
359 2 -9.42429 -3.66509 0.463954
411 2 -8.42473 -3.66845 0.459185
412 2 -7.42519 -3.67193 0.453807
468 2 -6.42564 -3.67553 0.44779
469 2 -5.42604 -3.67924 0.441119
529 2 -4.42633 -3.68306 0.433791
530 2 -3.42645 -3.68695 0.425819
594 2 -2.42637 -3.69092 0.417235
595 2 -1.42601 -3.69494 0.408089
663 2 -0.425349 -3.69899 0.39845
664 2 0.575667 -3.70305 0.388402
736 2 1.57706 -3.7071 0.378042
737 2 2.57884 -3.71112 0.367475
812 2 3.58102 -3.71509 0.356808
813 2 4.58356 -3.71899 0.346149
887 2 5.58646 -3.7228 0.335596
888 2 6.58967 -3.72651 0.325241
958 2 7.59314 -3.73011 0.315161
959 2 8.59684 -3.73359 0.30542
1025 2 9.60071 -3.73695 0.296067
1026 2 10.6047 -3.74017 0.287138
1088 2 11.6088 -3.74326 0.278655
1089 2 12.6129 -3.74621 0.270629
1147 2 13.6169 -3.74903 0.263061
188 2 -19.425 -2.63871 0.487247
189 2 -18.4245 -2.6408 0.486294
225 2 -17.424 -2.64301 0.485132
226 2 -16.4237 -2.64532 0.48373
266 2 -15.4235 -2.64776 0.482054
267 2 -14.4233 -2.65032 0.480067
311 2 -13.4233 -2.65301 0.477727
312 2 -12.4234 -2.65583 0.474991
360 2 -11.4236 -2.65878 0.471814
361 2 -10.4239 -2.66187 0.46815
413 2 -9.42429 -2.66509 0.463954
414 2 -8.42473 -2.66845 0.459185
470 2 -7.42519 -2.67193 0.453807
471 2 -6.42564 -2.67553 0.44779
531 2 -5.42604 -2.67924 0.441119
532 2 -4.42633 -2.68306 0.433791
596 2 -3.42645 -2.68695 0.425819
597 2 -2.42637 -2.69092 0.417235
665 2 -1.42601 -2.69494 0.408089
666 2 -0.425349 -2.69899 0.39845
738 2 0.575667 -2.70305 0.388402
739 2 1.57706 -2.7071 0.378042
814 2 2.57884 -2.71112 0.367475
815 2 3.58102 -2.71509 0.356808
889 2 4.58356 -2.71899 0.346149
890 2 5.58646 -2.7228 0.335596
960 2 6.58967 -2.72651 0.325241
961 2 7.59314 -2.73011 0.315161
1027 2 8.59684 -2.73359 0.30542
1028 2 9.60071 -2.73695 0.296067
1090 2 10.6047 -2.74017 0.287138
1091 2 11.6088 -2.74326 0.278655
1149 2 12.6129 -2.74621 0.270629
1150 2 13.6169 -2.74903 0.263061
190 2 -19.425 -1.63871 0.487247
227 2 -18.4245 -1.6408 0.486294
228 2 -17.424 -1.64301 0.485132
268 2 -16.4237 -1.64532 0.48373
269 2 -15.4235 -1.64776 0.482054
313 2 -14.4233 -1.65032 0.480067
314 2 -13.4233 -1.65301 0.477727
362 2 -12.4234 -1.65583 0.474991
363 2 -11.4236 -1.65878 0.471814
415 2 -10.4239 -1.66187 0.46815
416 2 -9.42429 -1.66509 0.463954
472 2 -8.42473 -1.66845 0.459185
473 2 -7.42519 -1.67193 0.453807
533 2 -6.42564 -1.67553 0.44779
534 2 -5.42604 -1.67924 0.441119
598 2 -4.42633 -1.68306 0.433791
599 2 -3.42645 -1.68695 0.425819
667 2 -2.42637 -1.69092 0.417235
668 2 -1.42601 -1.69494 0.408089
740 2 -0.425349 -1.69899 0.39845
741 2 0.575667 -1.70305 0.388402
816 2 1.57706 -1.7071 0.378042
817 2 2.57884 -1.71112 0.367475
891 2 3.58102 -1.71509 0.356808
892 2 4.58356 -1.71899 0.346149
962 2 5.58646 -1.7228 0.335596
963 2 6.58967 -1.72651 0.325241
1029 2 7.59314 -1.73011 0.315161
1030 2 8.59684 -1.73359 0.30542
1092 2 9.60071 -1.73695 0.296067
1093 2 10.6047 -1.74017 0.287138
1151 2 11.6088 -1.74326 0.278655
1152 2 12.6129 -1.74621 0.270629
1206 2 13.6169 -1.74903 0.263061
229 2 -19.425 -0.638711 0.487247
230 2 -18.4245 -0.640804 0.486294
270 2 -17.424 -0.643007 0.485132
271 2 -16.4237 -0.645324 0.48373
315 2 -15.4235 -0.647761 0.482054
316 2 -14.4233 -0.650322 0.480067
364 2 -13.4233 -0.653011 0.477727
365 2 -12.4234 -0.655831 0.474991
417 2 -11.4236 -0.658785 0.471814
418 2 -10.4239 -0.661873 0.46815
474 2 -9.42429 -0.665095 0.463954
475 2 -8.42473 -0.668449 0.459185
535 2 -7.42519 -0.671929 0.453807
536 2 -6.42564 -0.675531 0.44779
600 2 -5.42604 -0.679244 0.441119
601 2 -4.42633 -0.683056 0.433791
669 2 -3.42645 -0.686955 0.425819
670 2 -2.42637 -0.690922 0.417235
742 2 -1.42601 -0.694941 0.408089
743 2 -0.425349 -0.698991 0.39845
818 2 0.575667 -0.703052 0.388402
819 2 1.57706 -0.707102 0.378042
893 2 2.57884 -0.711121 0.367475
894 2 3.58102 -0.715089 0.356808
964 2 4.58356 -0.718987 0.346149
965 2 5.58646 -0.7228 0.335596
1031 2 6.58967 -0.726513 0.325241
1032 2 7.59314 -0.730114 0.315161
1094 2 8.59684 -0.733595 0.30542
1095 2 9.60071 -0.736949 0.296067
1153 2 10.6047 -0.740171 0.287138
1154 2 11.6088 -0.743259 0.278655
1208 2 12.6129 -0.746212 0.270629
1209 2 13.6169 -0.749033 0.263061
231 2 -19.425 0.361289 0.487247
272 2 -18.4245 0.359196 0.486294
273 2 -17.424 0.356993 0.485132
317 2 -16.4237 0.354676 0.48373
318 2 -15.4235 0.352239 0.482054
366 2 -14.4233 0.349678 0.480067
367 2 -13.4233 0.346989 0.477727
419 2 -12.4234 0.344169 0.474991
420 2 -11.4236 0.341215 0.471814
476 2 -10.4239 0.338127 0.46815
477 2 -9.42429 0.334905 0.463954
537 2 -8.42473 0.331551 0.459185
538 2 -7.42519 0.328071 0.453807
602 2 -6.42564 0.324469 0.44779
603 2 -5.42604 0.320756 0.441119
671 2 -4.42633 0.316944 0.433791
672 2 -3.42645 0.313045 0.425819
744 2 -2.42637 0.309078 0.417235
745 2 -1.42601 0.305059 0.408089
820 2 -0.425349 0.301009 0.39845
821 2 0.575667 0.296948 0.388402
895 2 1.57706 0.292898 0.378042
896 2 2.57884 0.288879 0.367475
966 2 3.58102 0.284911 0.356808
967 2 4.58356 0.281013 0.346149
1033 2 5.58646 0.2772 0.335596
1034 2 6.58967 0.273487 0.325241
1096 2 7.59314 0.269886 0.315161
1097 2 8.59684 0.266405 0.30542
1155 2 9.60071 0.263051 0.296067
1156 2 10.6047 0.259829 0.287138
1210 2 11.6088 0.256741 0.278655
1211 2 12.6129 0.253788 0.270629
1261 2 13.6169 0.250967 0.263061
274 2 -19.425 1.36129 0.487247
275 2 -18.4245 1.3592 0.486294
319 2 -17.424 1.35699 0.485132
320 2 -16.4237 1.35468 0.48373
368 2 -15.4235 1.35224 0.482054
369 2 -14.4233 1.34968 0.480067
421 2 -13.4233 1.34699 0.477727
422 2 -12.4234 1.34417 0.474991
478 2 -11.4236 1.34122 0.471814
479 2 -10.4239 1.33813 0.46815
539 2 -9.42429 1.33491 0.463954
540 2 -8.42473 1.33155 0.459185
604 2 -7.42519 1.32807 0.453807
605 2 -6.42564 1.32447 0.44779
673 2 -5.42604 1.32076 0.441119
674 2 -4.42633 1.31694 0.433791
746 2 -3.42645 1.31305 0.425819
747 2 -2.42637 1.30908 0.417235
822 2 -1.42601 1.30506 0.408089
823 2 -0.425349 1.30101 0.39845
897 2 0.575667 1.29695 0.388402
898 2 1.57706 1.2929 0.378042
968 2 2.57884 1.28888 0.367475
969 2 3.58102 1.28491 0.356808
1035 2 4.58356 1.28101 0.346149
1036 2 5.58646 1.2772 0.335596
1098 2 6.58967 1.27349 0.325241
1099 2 7.59314 1.26989 0.315161
1157 2 8.59684 1.26641 0.30542
1158 2 9.60071 1.26305 0.296067
1212 2 10.6047 1.25983 0.287138
1213 2 11.6088 1.25674 0.278655
1263 2 12.6129 1.25379 0.270629
1264 2 13.6169 1.25097 0.263061
276 2 -19.425 2.36129 0.487247
321 2 -18.4245 2.3592 0.486294
322 2 -17.424 2.35699 0.485132
370 2 -16.4237 2.35468 0.48373
371 2 -15.4235 2.35224 0.482054
423 2 -14.4233 2.34968 0.480067
424 2 -13.4233 2.34699 0.477727
480 2 -12.4234 2.34417 0.474991
481 2 -11.4236 2.34122 0.471814
541 2 -10.4239 2.33813 0.46815
542 2 -9.42429 2.33491 0.463954
606 2 -8.42473 2.33155 0.459185
607 2 -7.42519 2.32807 0.453807
675 2 -6.42564 2.32447 0.44779
676 2 -5.42604 2.32076 0.441119
748 2 -4.42633 2.31694 0.433791
749 2 -3.42645 2.31305 0.425819
824 2 -2.42637 2.30908 0.417235
825 2 -1.42601 2.30506 0.408089
899 2 -0.425349 2.30101 0.39845
900 2 0.575667 2.29695 0.388402
970 2 1.57706 2.2929 0.378042
971 2 2.57884 2.28888 0.367475
1037 2 3.58102 2.28491 0.356808
1038 2 4.58356 2.28101 0.346149
1100 2 5.58646 2.2772 0.335596
1101 2 6.58967 2.27349 0.325241
1159 2 7.59314 2.26989 0.315161
1160 2 8.59684 2.26641 0.30542
1214 2 9.60071 2.26305 0.296067
1215 2 10.6047 2.25983 0.287138
1265 2 11.6088 2.25674 0.278655
1266 2 12.6129 2.25379 0.270629
1312 2 13.6169 2.25097 0.263061
323 2 -19.425 3.36129 0.487247
324 2 -18.4245 3.3592 0.486294
372 2 -17.424 3.35699 0.485132
373 2 -16.4237 3.35468 0.48373
425 2 -15.4235 3.35224 0.482054
426 2 -14.4233 3.34968 0.480067
482 2 -13.4233 3.34699 0.477727
483 2 -12.4234 3.34417 0.474991
543 2 -11.4236 3.34122 0.471814
544 2 -10.4239 3.33813 0.46815
608 2 -9.42429 3.33491 0.463954
609 2 -8.42473 3.33155 0.459185
677 2 -7.42519 3.32807 0.453807
678 2 -6.42564 3.32447 0.44779
750 2 -5.42604 3.32076 0.441119
751 2 -4.42633 3.31694 0.433791
826 2 -3.42645 3.31305 0.425819
827 2 -2.42637 3.30908 0.417235
901 2 -1.42601 3.30506 0.408089
902 2 -0.425349 3.30101 0.39845
972 2 0.575667 3.29695 0.388402
973 2 1.57706 3.2929 0.378042
1039 2 2.57884 3.28888 0.367475
1040 2 3.58102 3.28491 0.356808
1102 2 4.58356 3.28101 0.346149
1103 2 5.58646 3.2772 0.335596
1161 2 6.58967 3.27349 0.325241
1162 2 7.59314 3.26989 0.315161
1216 2 8.59684 3.26641 0.30542
1217 2 9.60071 3.26305 0.296067
1267 2 10.6047 3.25983 0.287138
1268 2 11.6088 3.25674 0.278655
1314 2 12.6129 3.25379 0.270629
1315 2 13.6169 3.25097 0.263061
325 2 -19.425 4.36129 0.487247
374 2 -18.4245 4.3592 0.486294
375 2 -17.424 4.35699 0.485132
427 2 -16.4237 4.35468 0.48373
428 2 -15.4235 4.35224 0.482054
484 2 -14.4233 4.34968 0.480067
485 2 -13.4233 4.34699 0.477727
545 2 -12.4234 4.34417 0.474991
546 2 -11.4236 4.34122 0.471814
610 2 -10.4239 4.33813 0.46815
611 2 -9.42429 4.33491 0.463954
679 2 -8.42473 4.33155 0.459185
680 2 -7.42519 4.32807 0.453807
752 2 -6.42564 4.32447 0.44779
753 2 -5.42604 4.32076 0.441119
828 2 -4.42633 4.31694 0.433791
829 2 -3.42645 4.31305 0.425819
903 2 -2.42637 4.30908 0.417235
904 2 -1.42601 4.30506 0.408089
974 2 -0.425349 4.30101 0.39845
975 2 0.575667 4.29695 0.388402
1041 2 1.57706 4.2929 0.378042
1042 2 2.57884 4.28888 0.367475
1104 2 3.58102 4.28491 0.356808
1105 2 4.58356 4.28101 0.346149
1163 2 5.58646 4.2772 0.335596
1164 2 6.58967 4.27349 0.325241
1218 2 7.59314 4.26989 0.315161
1219 2 8.59684 4.26641 0.30542
1269 2 9.60071 4.26305 0.296067
1270 2 10.6047 4.25983 0.287138
1316 2 11.6088 4.25674 0.278655
1317 2 12.6129 4.25379 0.270629
1359 2 13.6169 4.25097 0.263061
376 2 -19.425 5.36129 0.487247
377 2 -18.4245 5.3592 0.486294
429 2 -17.424 5.35699 0.485132
430 2 -16.4237 5.35468 0.48373
486 2 -15.4235 5.35224 0.482054
487 2 -14.4233 5.34968 0.480067
547 2 -13.4233 5.34699 0.477727
548 2 -12.4234 5.34417 0.474991
612 2 -11.4236 5.34122 0.471814
613 2 -10.4239 5.33813 0.46815
681 2 -9.42429 5.33491 0.463954
682 2 -8.42473 5.33155 0.459185
754 2 -7.42519 5.32807 0.453807
755 2 -6.42564 5.32447 0.44779
830 2 -5.42604 5.32076 0.441119
831 2 -4.42633 5.31694 0.433791
905 2 -3.42645 5.31305 0.425819
906 2 -2.42637 5.30908 0.417235
976 2 -1.42601 5.30506 0.408089
977 2 -0.425349 5.30101 0.39845
1043 2 0.575667 5.29695 0.388402
1044 2 1.57706 5.2929 0.378042
1106 2 2.57884 5.28888 0.367475
1107 2 3.58102 5.28491 0.356808
1165 2 4.58356 5.28101 0.346149
1166 2 5.58646 5.2772 0.335596
1220 2 6.58967 5.27349 0.325241
1221 2 7.59314 5.26989 0.315161
1271 2 8.59684 5.26641 0.30542
1272 2 9.60071 5.26305 0.296067
1318 2 10.6047 5.25983 0.287138
1319 2 11.6088 5.25674 0.278655
1361 2 12.6129 5.25379 0.270629
1362 2 13.6169 5.25097 0.263061
378 2 -19.425 6.36129 0.487247
431 2 -18.4245 6.3592 0.486294
432 2 -17.424 6.35699 0.485132
488 2 -16.4237 6.35468 0.48373
489 2 -15.4235 6.35224 0.482054
549 2 -14.4233 6.34968 0.480067
550 2 -13.4233 6.34699 0.477727
614 2 -12.4234 6.34417 0.474991
615 2 -11.4236 6.34122 0.471814
683 2 -10.4239 6.33813 0.46815
684 2 -9.42429 6.33491 0.463954
756 2 -8.42473 6.33155 0.459185
757 2 -7.42519 6.32807 0.453807
832 2 -6.42564 6.32447 0.44779
833 2 -5.42604 6.32076 0.441119
907 2 -4.42633 6.31694 0.433791
908 2 -3.42645 6.31305 0.425819
978 2 -2.42637 6.30908 0.417235
979 2 -1.42601 6.30506 0.408089
1045 2 -0.425349 6.30101 0.39845
1046 2 0.575667 6.29695 0.388402
1108 2 1.57706 6.2929 0.378042
1109 2 2.57884 6.28888 0.367475
1167 2 3.58102 6.28491 0.356808
1168 2 4.58356 6.28101 0.346149
1222 2 5.58646 6.2772 0.335596
1223 2 6.58967 6.27349 0.325241
1273 2 7.59314 6.26989 0.315161
1274 2 8.59684 6.26641 0.30542
1320 2 9.60071 6.26305 0.296067
1321 2 10.6047 6.25983 0.287138
1363 2 11.6088 6.25674 0.278655
1364 2 12.6129 6.25379 0.270629
1402 2 13.6169 6.25097 0.263061
433 2 -19.425 7.36129 0.487247
434 2 -18.4245 7.3592 0.486294
490 2 -17.424 7.35699 0.485132
491 2 -16.4237 7.35468 0.48373
551 2 -15.4235 7.35224 0.482054
552 2 -14.4233 7.34968 0.480067
616 2 -13.4233 7.34699 0.477727