LAMMPS (15 Jun 2023)
OMP_NUM_THREADS environment is not set. Defaulting to 1 thread. (src/comm.cpp:98)
  using 1 OpenMP thread(s) per MPI task
Loaded 1 plugins from C:\Users\noae1\AppData\Local\LAMMPS 64-bit 15Jun2023\plugins
package omp 4
set 4 OpenMP thread(s) per MPI task
using multi-threaded neighbor list subroutines
# ---------- Initialize simulation ---------------------
units lj
atom_style atomic
dimension  3
boundary   p p p
read_data C:/Users/noae1/lammps/results/dislocation2_brownian_rcut_0.932/output/temperature_0.0001_s_1_rstart_0.5_timestep_1e-05_dumpstep_100_nstep_1000/mid_input/loc_test.data
Reading data file ...
  orthogonal box = (-20 -20 0) to (20 20 41.0122)
  1 by 1 by 1 MPI processor grid
  reading atoms ...
  91200 atoms
  read_data CPU = 0.245 seconds
mass * 1.0
group immobile type 2
11000 atoms in group immobile
group mobile type 1
80200 atoms in group mobile

pair_style table linear 10000
pair_coeff * * potential.table power_law 0.932
Reading pair table potential file potential.table with DATE: 2024-9-25

velocity mobile create 0.0001 87287 dist gaussian
velocity immobile set 0.0 0.0 0.0
compute displ all displace/atom
fix 1 all nve
fix 2 mobile brownian 0.0001 3213 gamma_t 1.0
fix 3 mobile recenter INIT INIT INIT
fix 4 immobile setforce 0.0 0.0 0.0
#--------- Dump file ------------------
thermo_style custom step pe ke temp press
thermo 10000
dump 1 all custom 10000 dump.* id type x y z

# --------- Run -------------
timestep 0.0001
run 10000000
Generated 0 of 1 mixed pair_coeff terms from geometric mixing rule
Last active /omp style is pair_style table/omp
WARNING: One or more atoms are time integrated more than once (src/modify.cpp:293)
Neighbor list info ...
  update: every = 1 steps, delay = 0 steps, check = yes
  max neighbors/atom: 2000, page size: 100000
  master list distance cutoff = 1.232
  ghost atom cutoff = 1.232
  binsize = 0.616, bins = 65 65 67
  1 neighbor lists, perpetual/occasional/extra = 1 0 0
  (1) pair table/omp, perpetual
      attributes: half, newton on, omp
      pair build: half/bin/atomonly/newton/omp
      stencil: half/bin/3d
      bin: standard
Per MPI rank memory allocation (min/avg/max) = 36.86 | 36.86 | 36.86 Mbytes
   Step         PotEng         KinEng          Temp          Press     
         0   86.281264      0.00013190625  8.7938464e-05  3977.1467    
     10000   86.280793      2.6458134      1.763895       3979.566     
     20000   86.280794      2.648054       1.7653887      3979.5688    
     30000   86.280794      2.6467674      1.7645309      3979.568     
     40000   86.280794      2.6442239      1.7628353      3979.566     
     50000   86.280794      2.6447619      1.7631939      3979.5664    
     60000   86.280794      2.643556       1.76239        3979.5655    
     70000   86.280794      2.647243       1.764848       3979.5689    
     80000   86.280794      2.6431361      1.76211        3979.5653    
     90000   86.280794      2.6435444      1.7623823      3979.5656    
    100000   86.280794      2.6382719      1.7588672      3979.5606    
    110000   86.280794      2.6428233      1.7619015      3979.565     
    120000   86.280795      2.6443802      1.7629395      3979.5667    
    130000   86.280795      2.642685       1.7618093      3979.5649    
    140000   86.280794      2.6407824      1.7605409      3979.5632    
    150000   86.280794      2.6422439      1.7615152      3979.5646    
    160000   86.280795      2.6439146      1.7626291      3979.5663    
    170000   86.280794      2.6455192      1.7636988      3979.5675    
    180000   86.280794      2.6459338      1.7639752      3979.5679    
    190000   86.280794      2.6499624      1.7666609      3979.5717    
    200000   86.280795      2.6487855      1.7658763      3979.5708    
    210000   86.280794      2.6400143      1.7600289      3979.5624    
    220000   86.280795      2.655463       1.7703281      3979.5768    
    230000   86.280794      2.6446385      1.7631117      3979.5667    
    240000   86.280795      2.6404784      1.7603382      3979.5629    
    250000   86.280794      2.645944       1.763982       3979.5678    
    260000   86.280795      2.6552675      1.7701978      3979.5767    
    270000   86.280795      2.6381407      1.7587797      3979.5608    
    280000   86.280795      2.6414128      1.7609611      3979.5638    
    290000   86.280795      2.6481374      1.7654443      3979.5701    
    300000   86.280794      2.6444112      1.7629601      3979.5664    
    310000   86.280794      2.646808       1.764558       3979.5686    
    320000   86.280794      2.6409654      1.7606629      3979.5632    
    330000   86.280794      2.6384753      1.7590028      3979.561     
    340000   86.280795      2.6427427      1.7618478      3979.5651    
    350000   86.280794      2.6470402      1.7647128      3979.5688    
    360000   86.280795      2.6367981      1.7578847      3979.5596    
    370000   86.280795      2.6510536      1.7673884      3979.5728    
    380000   86.280795      2.6485902      1.7657461      3979.5706    
    390000   86.280794      2.6499394      1.7666456      3979.5715    
    400000   86.280794      2.6537353      1.7691762      3979.5751    
    410000   86.280795      2.637531       1.7583733      3979.5602    
    420000   86.280795      2.6387288      1.7591718      3979.5614    
    430000   86.280795      2.6417233      1.7611682      3979.5641    
    440000   86.280794      2.6443128      1.7628946      3979.5665    
    450000   86.280794      2.6502722      1.7668675      3979.5718    
    460000   86.280794      2.6416282      1.7611047      3979.5639    
    470000   86.280795      2.6407288      1.7605051      3979.5632    
    480000   86.280795      2.6512972      1.7675509      3979.5731    
    490000   86.280795      2.6440341      1.7627087      3979.5663    
    500000   86.280795      2.6409374      1.7606442      3979.5633    
    510000   86.280795      2.645558       1.7637247      3979.5676    
    520000   86.280794      2.6393784      1.7596049      3979.562     
    530000   86.280794      2.6471645      1.7647957      3979.5691    
    540000   86.280794      2.6452465      1.763517       3979.5673    
    550000   86.280794      2.6406093      1.7604255      3979.563     
    560000   86.280795      2.6563709      1.7709333      3979.5777    
    570000   86.280795      2.6524183      1.7682982      3979.5741    
    580000   86.280794      2.6394762      1.7596701      3979.562     
    590000   86.280794      2.6382455      1.7588496      3979.5606    
    600000   86.280794      2.6419968      1.7613505      3979.5641    
    610000   86.280795      2.6414836      1.7610084      3979.564     
    620000   86.280795      2.6454123      1.7636275      3979.5676    
    630000   86.280795      2.6494372      1.7663108      3979.5713    
    640000   86.280794      2.6403886      1.7602784      3979.5626    
    650000   86.280794      2.6495974      1.7664176      3979.5713    
    660000   86.280794      2.6454484      1.7636516      3979.5673    
    670000   86.280794      2.6393863      1.7596102      3979.5619    
    680000   86.280794      2.641751       1.7611867      3979.5641    
    690000   86.280795      2.6445246      1.7630358      3979.5667    
    700000   86.280794      2.6465081      1.7643581      3979.5685    
    710000   86.280795      2.646446       1.7643167      3979.5686    
    720000   86.280795      2.6410652      1.7607294      3979.5636    
    730000   86.280794      2.634756       1.7565232      3979.5573    
    740000   86.280794      2.6427917      1.7618804      3979.565     
    750000   86.280795      2.6449683      1.7633316      3979.567     
    760000   86.280795      2.6423824      1.7616076      3979.5647    
    770000   86.280795      2.6365097      1.7576924      3979.5593    
    780000   86.280794      2.6474233      1.7649682      3979.5693    
    790000   86.280794      2.6358401      1.757246       3979.5585    
    800000   86.280794      2.6520426      1.7680478      3979.5736    
    810000   86.280795      2.6405691      1.7603987      3979.563     
    820000   86.280794      2.6365798      1.7577392      3979.5592    
    830000   86.280794      2.6406881      1.760478       3979.563     
    840000   86.280795      2.6376293      1.7584388      3979.5605    
    850000   86.280795      2.6456204      1.7637663      3979.5679    
    860000   86.280794      2.6484418      1.7656472      3979.57      
    870000   86.280795      2.6363238      1.7575685      3979.5591    
    880000   86.280795      2.6339107      1.7559598      3979.5569    
    890000   86.280795      2.6443328      1.7629079      3979.5665    
    900000   86.280795      2.646971       1.7646667      3979.5691    
    910000   86.280794      2.645624       1.7637687      3979.5675    
    920000   86.280795      2.6480318      1.7653739      3979.57      
    930000   86.280795      2.6405699      1.7603992      3979.5631    
    940000   86.280794      2.6457948      1.7638825      3979.5678    
    950000   86.280794      2.6403985      1.760285       3979.5627    
    960000   86.280795      2.6469068      1.7646239      3979.569     
    970000   86.280795      2.6504595      1.7669923      3979.5722    
    980000   86.280794      2.6442293      1.7628389      3979.5664    
    990000   86.280794      2.6389868      1.7593438      3979.5615    
   1000000   86.280794      2.6464903      1.7643462      3979.5684    
   1010000   86.280794      2.6434977      1.7623511      3979.5657    
   1020000   86.280795      2.64026        1.7601926      3979.5627    
   1030000   86.280795      2.6412901      1.7608793      3979.5637    
   1040000   86.280795      2.6480392      1.7653788      3979.5701    
   1050000   86.280794      2.6401065      1.7600903      3979.5625    
   1060000   86.280795      2.6483143      1.7655622      3979.5703    
   1070000   86.280794      2.6390545      1.759389       3979.5613    
   1080000   86.280795      2.6560557      1.7707232      3979.5774    
   1090000   86.280794      2.6368812      1.7579401      3979.5595    
   1100000   86.280795      2.6382939      1.7588819      3979.5609    
   1110000   86.280794      2.6426494      1.7617856      3979.5649    
   1120000   86.280795      2.6462161      1.7641634      3979.5684    
   1130000   86.280795      2.6427633      1.7618615      3979.5651    
   1140000   86.280795      2.6369986      1.7580184      3979.5597    
   1150000   86.280795      2.6421756      1.7614697      3979.5647    
   1160000   86.280795      2.6464732      1.7643348      3979.5686    
   1170000   86.280795      2.6468149      1.7645626      3979.5688    
   1180000   86.280794      2.6406523      1.7604541      3979.563     
   1190000   86.280795      2.6418972      1.7612841      3979.5643    
   1200000   86.280794      2.6468629      1.7645946      3979.5687    
   1210000   86.280795      2.6391016      1.7594203      3979.5618    
   1220000   86.280795      2.6419584      1.7613249      3979.5645    
   1230000   86.280795      2.6380826      1.758741       3979.5607    
   1240000   86.280794      2.6459679      1.7639979      3979.5679    
   1250000   86.280795      2.638721       1.7591666      3979.5613    
   1260000   86.280794      2.6480576      1.7653911      3979.5698    
   1270000   86.280794      2.6433217      1.7622338      3979.5655    
   1280000   86.280794      2.6526411      1.7684468      3979.5741    
   1290000   86.280794      2.6463382      1.7642448      3979.5683    
   1300000   86.280794      2.6412317      1.7608404      3979.5634    
   1310000   86.280794      2.6421151      1.7614294      3979.5643    
   1320000   86.280794      2.6516464      1.7677836      3979.5732    
   1330000   86.280795      2.6473854      1.764943       3979.5694    
   1340000   86.280794      2.6516461      1.7677835      3979.5733    
   1350000   86.280794      2.64447        1.7629993      3979.5665    
   1360000   86.280794      2.6375837      1.7584084      3979.5602    
   1370000   86.280795      2.6438828      1.7626079      3979.5662    
   1380000   86.280795      2.6468342      1.7645754      3979.569     
   1390000   86.280795      2.6437477      1.7625178      3979.566     
   1400000   86.280794      2.6353815      1.7569403      3979.5581    
   1410000   86.280795      2.6413613      1.7609268      3979.5638    
   1420000   86.280795      2.6563288      1.7709053      3979.5779    
   1430000   86.280795      2.6531261      1.7687701      3979.5747    
   1440000   86.280794      2.6435708      1.7623998      3979.5656    
   1450000   86.280794      2.6480479      1.7653846      3979.5699    
   1460000   86.280795      2.6436608      1.7624599      3979.566     
   1470000   86.280795      2.6326884      1.7551449      3979.5559    
   1480000   86.280794      2.6478028      1.7652212      3979.5696    
   1490000   86.280794      2.6473664      1.7649303      3979.5693    
   1500000   86.280794      2.6486463      1.7657835      3979.5704    
   1510000   86.280794      2.6491583      1.7661249      3979.5709    
   1520000   86.280795      2.635534       1.7570419      3979.5584    
   1530000   86.280794      2.6383584      1.7589249      3979.5608    
   1540000   86.280794      2.6508965      1.7672837      3979.5725    
   1550000   86.280795      2.647738       1.765178       3979.5697    
   1560000   86.280794      2.6368732      1.7579347      3979.5594    
   1570000   86.280794      2.6454853      1.7636762      3979.5675    
   1580000   86.280794      2.6403908      1.7602798      3979.5627    
   1590000   86.280794      2.6404026      1.7602877      3979.5627    
   1600000   86.280795      2.6400988      1.7600852      3979.5628    
   1610000   86.280794      2.6538943      1.7692823      3979.5753    
   1620000   86.280794      2.6491077      1.7660912      3979.5708    
   1630000   86.280794      2.6504214      1.766967       3979.5721    
   1640000   86.280795      2.6414834      1.7610082      3979.564     
   1650000   86.280795      2.6448511      1.7632534      3979.5671    
   1660000   86.280795      2.6348942      1.7566154      3979.5578    
   1670000   86.280794      2.6433231      1.7622347      3979.5654    
   1680000   86.280795      2.6394761      1.7596701      3979.5621    
   1690000   86.280794      2.6449013      1.7632869      3979.567     
   1700000   86.280795      2.6462899      1.7642126      3979.5684    
   1710000   86.280794      2.6477327      1.7651745      3979.5697    
   1720000   86.280795      2.6474491      1.7649854      3979.5694    
   1730000   86.280794      2.6507274      1.767171       3979.5723    
   1740000   86.280794      2.643827       1.7625706      3979.566     
   1750000   86.280794      2.6430308      1.7620398      3979.5651    
   1760000   86.280795      2.6509058      1.7672899      3979.5726    
   1770000   86.280794      2.6467087      1.7644918      3979.5685    
   1780000   86.280795      2.6441745      1.7628024      3979.5665    
   1790000   86.280794      2.6416393      1.7611122      3979.5639    
   1800000   86.280795      2.6418814      1.7612736      3979.5642    
   1810000   86.280794      2.6548391      1.7699121      3979.576     
   1820000   86.280795      2.6432369      1.7621773      3979.5655    
   1830000   86.280795      2.6337952      1.7558827      3979.5568    
   1840000   86.280795      2.6463918      1.7642806      3979.5684    
   1850000   86.280794      2.6525118      1.7683606      3979.574     
   1860000   86.280795      2.6496393      1.7664456      3979.5714    
   1870000   86.280795      2.6394331      1.7596414      3979.5621    
   1880000   86.280794      2.640183       1.7601413      3979.5626    
   1890000   86.280794      2.6477973      1.7652175      3979.5696    
   1900000   86.280795      2.6480973      1.7654175      3979.5701    
   1910000   86.280794      2.6437169      1.7624973      3979.5659    
   1920000   86.280794      2.6451355      1.763443       3979.5672    
   1930000   86.280794      2.644897       1.763284       3979.5669    
   1940000   86.280795      2.6477549      1.7651893      3979.5697    
   1950000   86.280795      2.6449542      1.7633221      3979.5672    
   1960000   86.280795      2.6339032      1.7559547      3979.5569    
   1970000   86.280794      2.6343744      1.7562688      3979.5572    
   1980000   86.280795      2.634237       1.7561773      3979.5572    
   1990000   86.280795      2.6445012      1.7630202      3979.5668    
   2000000   86.280794      2.6426721      1.7618007      3979.5649    
   2010000   86.280795      2.6398296      1.7599057      3979.5623    
   2020000   86.280794      2.6436138      1.7624285      3979.5656    
   2030000   86.280794      2.6410337      1.7607084      3979.5634    
   2040000   86.280795      2.6495599      1.7663926      3979.5714    
   2050000   86.280795      2.6546759      1.7698034      3979.5762    
   2060000   86.280795      2.6492569      1.7661906      3979.5711    
   2070000   86.280795      2.6423843      1.7616088      3979.5647    
   2080000   86.280795      2.6412916      1.7608804      3979.5636    
   2090000   86.280795      2.6432884      1.7622116      3979.5655    
   2100000   86.280794      2.6379401      1.758646       3979.5605    
   2110000   86.280794      2.642344       1.761582       3979.5647    
   2120000   86.280794      2.6354311      1.7569733      3979.5581    
   2130000   86.280795      2.6410664      1.7607303      3979.5634    
   2140000   86.280795      2.6424225      1.7616343      3979.5648    
   2150000   86.280794      2.6435955      1.7624163      3979.5658    
   2160000   86.280794      2.650026       1.7667034      3979.5717    
   2170000   86.280795      2.6412585      1.7608583      3979.5636    
   2180000   86.280794      2.6454232      1.7636348      3979.5674    
   2190000   86.280795      2.6435913      1.7624135      3979.5658    
   2200000   86.280794      2.6399523      1.7599875      3979.5624    
   2210000   86.280794      2.6323326      1.7549076      3979.5552    
   2220000   86.280795      2.6568961      1.7712835      3979.5782    
   2230000   86.280795      2.6466119      1.7644273      3979.5688    
   2240000   86.280795      2.6424268      1.7616372      3979.5648    
   2250000   86.280795      2.646276       1.7642033      3979.5683    
   2260000   86.280795      2.6430081      1.7620247      3979.5653    
   2270000   86.280794      2.6494511      1.7663201      3979.5713    
   2280000   86.280794      2.6500099      1.7666927      3979.5718    
   2290000   86.280794      2.6540984      1.7694183      3979.5753    
   2300000   86.280795      2.6509524      1.767321       3979.5728    
   2310000   86.280794      2.6457345      1.7638423      3979.5677    
   2320000   86.280794      2.6422081      1.7614914      3979.5645    
   2330000   86.280794      2.6356622      1.7571274      3979.5584    
   2340000   86.280795      2.6451492      1.7634522      3979.5673    
   2350000   86.280794      2.6461116      1.7640937      3979.568     
   2360000   86.280794      2.6404876      1.7603444      3979.5628    
   2370000   86.280794      2.6420762      1.7614035      3979.5643    
   2380000   86.280795      2.6363895      1.7576123      3979.5592    
   2390000   86.280794      2.6376314      1.7584402      3979.5602    
   2400000   86.280795      2.6434224      1.7623009      3979.5656    
   2410000   86.280795      2.6389374      1.7593109      3979.5617    
   2420000   86.280794      2.6428188      1.7618985      3979.565     
   2430000   86.280794      2.6436207      1.7624331      3979.5657    
   2440000   86.280795      2.6465655      1.7643964      3979.5686    
   2450000   86.280794      2.6528606      1.7685931      3979.5743    
   2460000   86.280794      2.6357559      1.7571899      3979.5584    
   2470000   86.280794      2.6436814      1.7624736      3979.5657    
   2480000   86.280794      2.6460809      1.7640733      3979.5679    
   2490000   86.280794      2.6462804      1.7642062      3979.5682    
   2500000   86.280794      2.6491772      1.7661375      3979.5709    
   2510000   86.280795      2.6376637      1.7584618      3979.5603    
   2520000   86.280794      2.6416236      1.7611017      3979.5637    