LAMMPS (15 Jun 2023)
OMP_NUM_THREADS environment is not set. Defaulting to 1 thread. (src/comm.cpp:98)
  using 1 OpenMP thread(s) per MPI task
Loaded 1 plugins from C:\Users\noae1\AppData\Local\LAMMPS 64-bit 15Jun2023\plugins
package omp 4
set 4 OpenMP thread(s) per MPI task
using multi-threaded neighbor list subroutines
# ---------- Initialize simulation ---------------------
units lj
atom_style atomic
dimension  3
boundary   p p p
read_data C:/Users/noae1/lammps/results/dislocation2_brownian_rcut_0.932/output/temperature_0.0001_s_1_rstart_0.5_timestep_1e-05_dumpstep_100_nstep_1000/mid_input/loc_test.data
Reading data file ...
  orthogonal box = (-20 -20 0) to (20 20 41.0122)
  1 by 1 by 1 MPI processor grid
  reading atoms ...
  91200 atoms
  read_data CPU = 0.303 seconds
mass * 1.0
group immobile type 2
11000 atoms in group immobile
group mobile type 1
80200 atoms in group mobile

pair_style table linear 10000
pair_coeff * * potential.table power_law 0.932
Reading pair table potential file potential.table with DATE: 2024-10-6

velocity mobile create 0.0001 87287 dist gaussian
velocity immobile set 0.0 0.0 0.0
compute displ all displace/atom
fix 1 all nve
fix 2 mobile brownian 0.0001 3213 gamma_t 1.0
fix 3 mobile recenter INIT INIT INIT
fix 4 immobile setforce 0.0 0.0 0.0
#--------- Dump file ------------------
thermo_style custom step pe ke temp press
thermo 10000
dump 1 all custom 10000 dump.* id type x y z

# --------- Run -------------
timestep 0.0001
run 10000000
Generated 0 of 1 mixed pair_coeff terms from geometric mixing rule
Last active /omp style is pair_style table/omp
WARNING: One or more atoms are time integrated more than once (src/modify.cpp:293)
Neighbor list info ...
  update: every = 1 steps, delay = 0 steps, check = yes
  max neighbors/atom: 2000, page size: 100000
  master list distance cutoff = 1.232
  ghost atom cutoff = 1.232
  binsize = 0.616, bins = 65 65 67
  1 neighbor lists, perpetual/occasional/extra = 1 0 0
  (1) pair table/omp, perpetual
      attributes: half, newton on, omp
      pair build: half/bin/atomonly/newton/omp
      stencil: half/bin/3d
      bin: standard
Per MPI rank memory allocation (min/avg/max) = 36.86 | 36.86 | 36.86 Mbytes
   Step         PotEng         KinEng          Temp          Press     
         0   86.281264      0.00013190625  8.7938464e-05  3977.1467    
     10000   86.280793      2.6458134      1.763895       3979.566     
     20000   86.280794      2.648054       1.7653887      3979.5688    
     30000   86.280794      2.6467674      1.7645309      3979.568     
     40000   86.280794      2.6442239      1.7628353      3979.566     
     50000   86.280794      2.6447619      1.7631939      3979.5664    
     60000   86.280794      2.643556       1.76239        3979.5655    
     70000   86.280794      2.647243       1.764848       3979.5689    
     80000   86.280794      2.6431361      1.76211        3979.5653    
     90000   86.280794      2.6435444      1.7623823      3979.5656    
    100000   86.280794      2.6382719      1.7588672      3979.5606    
    110000   86.280794      2.6428233      1.7619015      3979.565     
    120000   86.280795      2.6443802      1.7629395      3979.5667    
    130000   86.280795      2.642685       1.7618093      3979.5649    
    140000   86.280794      2.6407824      1.7605409      3979.5632    
    150000   86.280794      2.6422439      1.7615152      3979.5646    
    160000   86.280795      2.6439146      1.7626291      3979.5663    
    170000   86.280794      2.6455192      1.7636988      3979.5675    
    180000   86.280794      2.6459338      1.7639752      3979.5679    
    190000   86.280794      2.6499624      1.7666609      3979.5717    
    200000   86.280795      2.6487855      1.7658763      3979.5708    
    210000   86.280794      2.6400143      1.7600289      3979.5624    
    220000   86.280795      2.655463       1.7703281      3979.5768    
    230000   86.280794      2.6446385      1.7631117      3979.5667    
    240000   86.280795      2.6404784      1.7603382      3979.5629    
    250000   86.280794      2.645944       1.763982       3979.5678    
    260000   86.280795      2.6552675      1.7701978      3979.5767    
    270000   86.280795      2.6381407      1.7587797      3979.5608    
    280000   86.280795      2.6414128      1.7609611      3979.5638    
    290000   86.280795      2.6481374      1.7654443      3979.5701    
    300000   86.280794      2.6444112      1.7629601      3979.5664    
    310000   86.280794      2.646808       1.764558       3979.5686    
    320000   86.280794      2.6409654      1.7606629      3979.5632    
    330000   86.280794      2.6384753      1.7590028      3979.561     
    340000   86.280795      2.6427427      1.7618478      3979.5651    
    350000   86.280794      2.6470402      1.7647128      3979.5688    
    360000   86.280795      2.6367981      1.7578847      3979.5596    
    370000   86.280795      2.6510536      1.7673884      3979.5728    
    380000   86.280795      2.6485902      1.7657461      3979.5706    
    390000   86.280794      2.6499394      1.7666456      3979.5715    
    400000   86.280794      2.6537353      1.7691762      3979.5751    
    410000   86.280795      2.637531       1.7583733      3979.5602    
    420000   86.280795      2.6387288      1.7591718      3979.5614    
    430000   86.280795      2.6417233      1.7611682      3979.5641    
    440000   86.280794      2.6443128      1.7628946      3979.5665    
    450000   86.280794      2.6502722      1.7668675      3979.5718    
    460000   86.280794      2.6416282      1.7611047      3979.5639    
    470000   86.280795      2.6407288      1.7605051      3979.5632    
    480000   86.280795      2.6512972      1.7675509      3979.5731    
    490000   86.280795      2.6440341      1.7627087      3979.5663    
    500000   86.280795      2.6409374      1.7606442      3979.5633    
    510000   86.280795      2.645558       1.7637247      3979.5676    
    520000   86.280794      2.6393784      1.7596049      3979.562     
    530000   86.280794      2.6471645      1.7647957      3979.5691    
    540000   86.280794      2.6452465      1.763517       3979.5673    
    550000   86.280794      2.6406093      1.7604255      3979.563     
    560000   86.280795      2.6563709      1.7709333      3979.5777    
    570000   86.280795      2.6524183      1.7682982      3979.5741    
    580000   86.280794      2.6394762      1.7596701      3979.562     
    590000   86.280794      2.6382455      1.7588496      3979.5606    
    600000   86.280794      2.6419968      1.7613505      3979.5641    
    610000   86.280795      2.6414836      1.7610084      3979.564     
    620000   86.280795      2.6454123      1.7636275      3979.5676    
    630000   86.280795      2.6494372      1.7663108      3979.5713    
    640000   86.280794      2.6403886      1.7602784      3979.5626    
    650000   86.280794      2.6495974      1.7664176      3979.5713    
    660000   86.280794      2.6454484      1.7636516      3979.5673    
    670000   86.280794      2.6393863      1.7596102      3979.5619    
    680000   86.280794      2.641751       1.7611867      3979.5641    
    690000   86.280795      2.6445246      1.7630358      3979.5667    
    700000   86.280794      2.6465081      1.7643581      3979.5685    
    710000   86.280795      2.646446       1.7643167      3979.5686    
    720000   86.280795      2.6410652      1.7607294      3979.5636    
    730000   86.280794      2.634756       1.7565232      3979.5573    
    740000   86.280794      2.6427917      1.7618804      3979.565     
    750000   86.280795      2.6449683      1.7633316      3979.567     
    760000   86.280795      2.6423824      1.7616076      3979.5647    
    770000   86.280795      2.6365097      1.7576924      3979.5593    
    780000   86.280794      2.6474233      1.7649682      3979.5693    
    790000   86.280794      2.6358401      1.757246       3979.5585    
    800000   86.280794      2.6520426      1.7680478      3979.5736    
    810000   86.280795      2.6405691      1.7603987      3979.563     
    820000   86.280794      2.6365798      1.7577392      3979.5592    
    830000   86.280794      2.6406881      1.760478       3979.563     
    840000   86.280795      2.6376293      1.7584388      3979.5605    
    850000   86.280795      2.6456204      1.7637663      3979.5679    
    860000   86.280794      2.6484418      1.7656472      3979.57      
    870000   86.280795      2.6363238      1.7575685      3979.5591    
    880000   86.280795      2.6339107      1.7559598      3979.5569    
    890000   86.280795      2.6443328      1.7629079      3979.5665    
    900000   86.280795      2.646971       1.7646667      3979.5691    
    910000   86.280794      2.645624       1.7637687      3979.5675    
    920000   86.280795      2.6480318      1.7653739      3979.57      
    930000   86.280795      2.6405699      1.7603992      3979.5631    
    940000   86.280794      2.6457948      1.7638825      3979.5678    
    950000   86.280794      2.6403985      1.760285       3979.5627    
    960000   86.280795      2.6469068      1.7646239      3979.569     
    970000   86.280795      2.6504595      1.7669923      3979.5722    
    980000   86.280794      2.6442293      1.7628389      3979.5664    
    990000   86.280794      2.6389868      1.7593438      3979.5615    
   1000000   86.280794      2.6464903      1.7643462      3979.5684    
   1010000   86.280794      2.6434977      1.7623511      3979.5657    
   1020000   86.280795      2.64026        1.7601926      3979.5627    
   1030000   86.280795      2.6412901      1.7608793      3979.5637    
   1040000   86.280795      2.6480392      1.7653788      3979.5701    
   1050000   86.280794      2.6401065      1.7600903      3979.5625    
   1060000   86.280795      2.6483143      1.7655622      3979.5703    
   1070000   86.280794      2.6390545      1.759389       3979.5613    
   1080000   86.280795      2.6560557      1.7707232      3979.5774    
   1090000   86.280794      2.6368812      1.7579401      3979.5595    
   1100000   86.280795      2.6382939      1.7588819      3979.5609    
   1110000   86.280794      2.6426494      1.7617856      3979.5649    
   1120000   86.280795      2.6462161      1.7641634      3979.5684    
   1130000   86.280795      2.6427633      1.7618615      3979.5651    
   1140000   86.280795      2.6369986      1.7580184      3979.5597    
   1150000   86.280795      2.6421756      1.7614697      3979.5647    
   1160000   86.280795      2.6464732      1.7643348      3979.5686    
   1170000   86.280795      2.6468149      1.7645626      3979.5688    
   1180000   86.280794      2.6406523      1.7604541      3979.563     
   1190000   86.280795      2.6418972      1.7612841      3979.5643    
   1200000   86.280794      2.6468629      1.7645946      3979.5687    
   1210000   86.280795      2.6391016      1.7594203      3979.5618    
   1220000   86.280795      2.6419584      1.7613249      3979.5645    
   1230000   86.280795      2.6380826      1.758741       3979.5607    
   1240000   86.280794      2.6459679      1.7639979      3979.5679    
   1250000   86.280795      2.638721       1.7591666      3979.5613    
   1260000   86.280794      2.6480576      1.7653911      3979.5698    
   1270000   86.280794      2.6433217      1.7622338      3979.5655    
   1280000   86.280794      2.6526411      1.7684468      3979.5741    
   1290000   86.280794      2.6463382      1.7642448      3979.5683    
   1300000   86.280794      2.6412317      1.7608404      3979.5634    
   1310000   86.280794      2.6421151      1.7614294      3979.5643    
   1320000   86.280794      2.6516464      1.7677836      3979.5732    
   1330000   86.280795      2.6473854      1.764943       3979.5694    
   1340000   86.280794      2.6516461      1.7677835      3979.5733    
   1350000   86.280794      2.64447        1.7629993      3979.5665    
   1360000   86.280794      2.6375837      1.7584084      3979.5602    
   1370000   86.280795      2.6438828      1.7626079      3979.5662    
   1380000   86.280795      2.6468342      1.7645754      3979.569     
   1390000   86.280795      2.6437477      1.7625178      3979.566     
   1400000   86.280794      2.6353815      1.7569403      3979.5581    
   1410000   86.280795      2.6413613      1.7609268      3979.5638    
   1420000   86.280795      2.6563288      1.7709053      3979.5779    
   1430000   86.280795      2.6531261      1.7687701      3979.5747    
   1440000   86.280794      2.6435708      1.7623998      3979.5656    
   1450000   86.280794      2.6480479      1.7653846      3979.5699    
   1460000   86.280795      2.6436608      1.7624599      3979.566     
   1470000   86.280795      2.6326884      1.7551449      3979.5559    
   1480000   86.280794      2.6478028      1.7652212      3979.5696    
   1490000   86.280794      2.6473664      1.7649303      3979.5693    
   1500000   86.280794      2.6486463      1.7657835      3979.5704    
   1510000   86.280794      2.6491583      1.7661249      3979.5709    
   1520000   86.280795      2.635534       1.7570419      3979.5584    
   1530000   86.280794      2.6383584      1.7589249      3979.5608    
   1540000   86.280794      2.6508965      1.7672837      3979.5725    
   1550000   86.280795      2.647738       1.765178       3979.5697    
   1560000   86.280794      2.6368732      1.7579347      3979.5594    
   1570000   86.280794      2.6454853      1.7636762      3979.5675    
   1580000   86.280794      2.6403908      1.7602798      3979.5627    
   1590000   86.280794      2.6404026      1.7602877      3979.5627    
   1600000   86.280795      2.6400988      1.7600852      3979.5628    
   1610000   86.280794      2.6538943      1.7692823      3979.5753    
   1620000   86.280794      2.6491077      1.7660912      3979.5708    
   1630000   86.280794      2.6504214      1.766967       3979.5721    
   1640000   86.280795      2.6414834      1.7610082      3979.564     
   1650000   86.280795      2.6448511      1.7632534      3979.5671    
   1660000   86.280795      2.6348942      1.7566154      3979.5578    
   1670000   86.280794      2.6433231      1.7622347      3979.5654    
   1680000   86.280795      2.6394761      1.7596701      3979.5621    
   1690000   86.280794      2.6449013      1.7632869      3979.567     
   1700000   86.280795      2.6462899      1.7642126      3979.5684    
   1710000   86.280794      2.6477327      1.7651745      3979.5697    
   1720000   86.280795      2.6474491      1.7649854      3979.5694    
   1730000   86.280794      2.6507274      1.767171       3979.5723    
   1740000   86.280794      2.643827       1.7625706      3979.566     
   1750000   86.280794      2.6430308      1.7620398      3979.5651    
   1760000   86.280795      2.6509058      1.7672899      3979.5726    
   1770000   86.280794      2.6467087      1.7644918      3979.5685    
   1780000   86.280795      2.6441745      1.7628024      3979.5665    
   1790000   86.280794      2.6416393      1.7611122      3979.5639    
   1800000   86.280795      2.6418814      1.7612736      3979.5642    
   1810000   86.280794      2.6548391      1.7699121      3979.576     
   1820000   86.280795      2.6432369      1.7621773      3979.5655    
   1830000   86.280795      2.6337952      1.7558827      3979.5568    
   1840000   86.280795      2.6463918      1.7642806      3979.5684    
   1850000   86.280794      2.6525118      1.7683606      3979.574     
   1860000   86.280795      2.6496393      1.7664456      3979.5714    
   1870000   86.280795      2.6394331      1.7596414      3979.5621    
   1880000   86.280794      2.640183       1.7601413      3979.5626    
   1890000   86.280794      2.6477973      1.7652175      3979.5696    
   1900000   86.280795      2.6480973      1.7654175      3979.5701    
   1910000   86.280794      2.6437169      1.7624973      3979.5659    
   1920000   86.280794      2.6451355      1.763443       3979.5672    
   1930000   86.280794      2.644897       1.763284       3979.5669    
   1940000   86.280795      2.6477549      1.7651893      3979.5697    
   1950000   86.280795      2.6449542      1.7633221      3979.5672    
   1960000   86.280795      2.6339032      1.7559547      3979.5569    
   1970000   86.280794      2.6343744      1.7562688      3979.5572    
   1980000   86.280795      2.634237       1.7561773      3979.5572    
   1990000   86.280795      2.6445012      1.7630202      3979.5668    
   2000000   86.280794      2.6426721      1.7618007      3979.5649    
   2010000   86.280795      2.6398296      1.7599057      3979.5623    
   2020000   86.280794      2.6436138      1.7624285      3979.5656    
   2030000   86.280794      2.6410337      1.7607084      3979.5634    
   2040000   86.280795      2.6495599      1.7663926      3979.5714    
   2050000   86.280795      2.6546759      1.7698034      3979.5762    
   2060000   86.280795      2.6492569      1.7661906      3979.5711    
   2070000   86.280795      2.6423843      1.7616088      3979.5647    
   2080000   86.280795      2.6412916      1.7608804      3979.5636    
   2090000   86.280795      2.6432884      1.7622116      3979.5655    
   2100000   86.280794      2.6379401      1.758646       3979.5605    
   2110000   86.280794      2.642344       1.761582       3979.5647    
   2120000   86.280794      2.6354311      1.7569733      3979.5581    
   2130000   86.280795      2.6410664      1.7607303      3979.5634    
   2140000   86.280795      2.6424225      1.7616343      3979.5648    
   2150000   86.280794      2.6435955      1.7624163      3979.5658    
   2160000   86.280794      2.650026       1.7667034      3979.5717    
   2170000   86.280795      2.6412585      1.7608583      3979.5636    
   2180000   86.280794      2.6454232      1.7636348      3979.5674    
   2190000   86.280795      2.6435913      1.7624135      3979.5658    
   2200000   86.280794      2.6399523      1.7599875      3979.5624    
   2210000   86.280794      2.6323326      1.7549076      3979.5552    
   2220000   86.280795      2.6568961      1.7712835      3979.5782    
   2230000   86.280795      2.6466119      1.7644273      3979.5688    
   2240000   86.280795      2.6424268      1.7616372      3979.5648    
   2250000   86.280795      2.646276       1.7642033      3979.5683    
   2260000   86.280795      2.6430081      1.7620247      3979.5653    
   2270000   86.280794      2.6494511      1.7663201      3979.5713    
   2280000   86.280794      2.6500099      1.7666927      3979.5718    
   2290000   86.280794      2.6540984      1.7694183      3979.5753    
   2300000   86.280795      2.6509524      1.767321       3979.5728    
   2310000   86.280794      2.6457345      1.7638423      3979.5677    
   2320000   86.280794      2.6422081      1.7614914      3979.5645    
   2330000   86.280794      2.6356622      1.7571274      3979.5584    
   2340000   86.280795      2.6451492      1.7634522      3979.5673    
   2350000   86.280794      2.6461116      1.7640937      3979.568     
   2360000   86.280794      2.6404876      1.7603444      3979.5628    
   2370000   86.280794      2.6420762      1.7614035      3979.5643    
   2380000   86.280795      2.6363895      1.7576123      3979.5592    
   2390000   86.280794      2.6376314      1.7584402      3979.5602    
   2400000   86.280795      2.6434224      1.7623009      3979.5656    
   2410000   86.280795      2.6389374      1.7593109      3979.5617    
   2420000   86.280794      2.6428188      1.7618985      3979.565     
   2430000   86.280794      2.6436207      1.7624331      3979.5657    
   2440000   86.280795      2.6465655      1.7643964      3979.5686    
   2450000   86.280794      2.6528606      1.7685931      3979.5743    
   2460000   86.280794      2.6357559      1.7571899      3979.5584    
   2470000   86.280794      2.6436814      1.7624736      3979.5657    
   2480000   86.280794      2.6460809      1.7640733      3979.5679    
   2490000   86.280794      2.6462804      1.7642062      3979.5682    
   2500000   86.280794      2.6491772      1.7661375      3979.5709    
   2510000   86.280795      2.6376637      1.7584618      3979.5603    
   2520000   86.280794      2.6416236      1.7611017      3979.5637    
   2530000   86.280795      2.6372083      1.7581582      3979.5599    
   2540000   86.280794      2.6377745      1.7585356      3979.5603    
   2550000   86.280794      2.6452968      1.7635506      3979.5674    
   2560000   86.280794      2.6445672      1.7630642      3979.5666    
   2570000   86.280795      2.6439722      1.7626675      3979.5661    
   2580000   86.280795      2.6422638      1.7615285      3979.5646    
   2590000   86.280794      2.6459075      1.7639577      3979.5679    
   2600000   86.280794      2.6454357      1.7636431      3979.5675    
   2610000   86.280795      2.6488263      1.7659036      3979.5708    
   2620000   86.280795      2.6520708      1.7680666      3979.5738    
   2630000   86.280794      2.6416566      1.7611237      3979.5638    
   2640000   86.280795      2.6450876      1.763411       3979.5673    
   2650000   86.280795      2.6481318      1.7654406      3979.5701    
   2660000   86.280795      2.6479986      1.7653518      3979.5699    
   2670000   86.280795      2.6479122      1.7652942      3979.57      
   2680000   86.280795      2.6440848      1.7627425      3979.5663    
   2690000   86.280795      2.6441626      1.7627944      3979.5664    
   2700000   86.280795      2.6473927      1.7649478      3979.5695    
   2710000   86.280794      2.6367628      1.7578612      3979.5593    
   2720000   86.280795      2.6500235      1.7667017      3979.5718    
   2730000   86.280795      2.6452122      1.7634941      3979.5674    
   2740000   86.280795      2.6518219      1.7679007      3979.5735    
   2750000   86.280794      2.6456375      1.7637777      3979.5677    
   2760000   86.280795      2.6458635      1.7639283      3979.5679    
   2770000   86.280794      2.6414005      1.760953       3979.5637    
   2780000   86.280794      2.6485381      1.7657115      3979.5704    
   2790000   86.280794      2.6479739      1.7653353      3979.5698    
   2800000   86.280795      2.6423189      1.7615652      3979.5648    
   2810000   86.280795      2.6441083      1.7627582      3979.5664    
   2820000   86.280794      2.6533993      1.7689523      3979.5748    
   2830000   86.280794      2.6409052      1.7606228      3979.5632    
   2840000   86.280795      2.6486361      1.7657768      3979.5709    
   2850000   86.280794      2.6446383      1.7631115      3979.5668    
   2860000   86.280794      2.6517281      1.7678381      3979.5732    
   2870000   86.280794      2.6490349      1.7660426      3979.5708    
   2880000   86.280794      2.6417751      1.7612027      3979.564     
   2890000   86.280795      2.6451636      1.7634617      3979.5672    
   2900000   86.280794      2.6381171      1.758764       3979.5607    
   2910000   86.280794      2.6418495      1.7612523      3979.5641    
   2920000   86.280795      2.6456658      1.7637965      3979.5677    
   2930000   86.280794      2.6357316      1.7571737      3979.5584    
   2940000   86.280795      2.6506044      1.767089       3979.5724    
   2950000   86.280794      2.642243       1.7615146      3979.5645    
   2960000   86.280795      2.6554502      1.7703196      3979.5769    
   2970000   86.280794      2.6384538      1.7589885      3979.561     
   2980000   86.280795      2.6493886      1.7662784      3979.5714    
   2990000   86.280794      2.6399002      1.7599528      3979.5621    
   3000000   86.280794      2.6487974      1.7658843      3979.5705    
   3010000   86.280795      2.6390049      1.7593559      3979.5616    
   3020000   86.280794      2.6429953      1.7620162      3979.5651    
   3030000   86.280794      2.635335       1.7569093      3979.558     
   3040000   86.280795      2.6483275      1.765571       3979.5703    
   3050000   86.280794      2.6414909      1.7610132      3979.5638    
   3060000   86.280795      2.644881       1.7632733      3979.5671    
   3070000   86.280795      2.648494       1.765682       3979.5704    
   3080000   86.280794      2.6440283      1.7627049      3979.5662    
   3090000   86.280794      2.6418411      1.7612467      3979.5641    
   3100000   86.280795      2.6367904      1.7578795      3979.5596    
   3110000   86.280795      2.6399268      1.7599705      3979.5625    
   3120000   86.280795      2.6395833      1.7597415      3979.5622    
   3130000   86.280795      2.6462916      1.7642137      3979.5683    
   3140000   86.280795      2.646736       1.76451        3979.5688    
   3150000   86.280794      2.6475744      1.7650689      3979.5694    
   3160000   86.280794      2.631792       1.7545472      3979.5548    
   3170000   86.280794      2.6399201      1.7599661      3979.5623    
   3180000   86.280794      2.6427595      1.761859       3979.5649    
   3190000   86.280795      2.6472546      1.7648557      3979.5693    
   3200000   86.280794      2.6487959      1.7658833      3979.5704    
   3210000   86.280794      2.6462677      1.7641978      3979.5682    
   3220000   86.280794      2.6350651      1.7567293      3979.5578    
   3230000   86.280795      2.6408306      1.760573       3979.5632    
   3240000   86.280794      2.6476764      1.765137       3979.5696    
   3250000   86.280795      2.6426437      1.7617818      3979.5651    
   3260000   86.280795      2.6531964      1.768817       3979.5747    
   3270000   86.280795      2.6371527      1.7581211      3979.5599    
   3280000   86.280794      2.6464565      1.7643237      3979.5684    
   3290000   86.280794      2.6412747      1.7608691      3979.5636    
   3300000   86.280795      2.6484172      1.7656308      3979.5705    
   3310000   86.280795      2.6407481      1.760518       3979.5632    
   3320000   86.280795      2.6433284      1.7622382      3979.5657    
   3330000   86.280794      2.639523       1.7597013      3979.5621    
   3340000   86.280795      2.6461167      1.7640971      3979.5682    
   3350000   86.280794      2.6418154      1.7612296      3979.564     
   3360000   86.280794      2.6469656      1.7646631      3979.5688    
   3370000   86.280795      2.6495738      1.7664019      3979.5715    
   3380000   86.280795      2.639868       1.7599313      3979.5625    
   3390000   86.280795      2.6458514      1.7639203      3979.568     
   3400000   86.280794      2.6377164      1.7584969      3979.5602    
   3410000   86.280795      2.6335088      1.7556918      3979.5566    
   3420000   86.280794      2.645686       1.76381        3979.5677    
   3430000   86.280794      2.6415388      1.7610452      3979.5637    
   3440000   86.280794      2.6436646      1.7624624      3979.5657    
   3450000   86.280795      2.6425019      1.7616872      3979.5649    
   3460000   86.280794      2.6425675      1.761731       3979.5647    
   3470000   86.280795      2.645049       1.7633853      3979.567     
   3480000   86.280795      2.6415683      1.7610648      3979.564     
   3490000   86.280795      2.646641       1.7644467      3979.5689    
   3500000   86.280794      2.647385       1.7649427      3979.5692    
   3510000   86.280795      2.6536141      1.7690955      3979.5753    
   3520000   86.280795      2.6426329      1.7617746      3979.5651    
   3530000   86.280795      2.6435146      1.7623624      3979.5657    
   3540000   86.280794      2.6494417      1.7663138      3979.5711    
   3550000   86.280794      2.6429183      1.7619649      3979.5651    
   3560000   86.280794      2.6378714      1.7586002      3979.5603    
   3570000   86.280795      2.637092       1.7580806      3979.5598    
   3580000   86.280794      2.6487175      1.765831       3979.5704    
   3590000   86.280795      2.6439305      1.7626397      3979.5662    
   3600000   86.280795      2.6496692      1.7664655      3979.5715    
   3610000   86.280794      2.651389       1.767612       3979.5731    
   3620000   86.280794      2.6460554      1.7640563      3979.568     
   3630000   86.280795      2.6407148      1.7604959      3979.5634    
   3640000   86.280795      2.6457936      1.7638818      3979.5678    
   3650000   86.280794      2.6419307      1.7613065      3979.5643    
   3660000   86.280795      2.6440343      1.7627089      3979.5663    
   3670000   86.280794      2.6356486      1.7571183      3979.5584    
   3680000   86.280795      2.6307188      1.7538318      3979.554     
   3690000   86.280795      2.6456034      1.7637549      3979.5677    
   3700000   86.280794      2.6457816      1.7638737      3979.5678    
   3710000   86.280794      2.6445888      1.7630785      3979.5666    
   3720000   86.280794      2.6430776      1.7620711      3979.5654    
   3730000   86.280794      2.6441583      1.7627916      3979.5662    
   3740000   86.280795      2.6405381      1.7603781      3979.5632    
   3750000   86.280794      2.6510526      1.7673878      3979.5727    
   3760000   86.280794      2.6453105      1.7635596      3979.5674    
   3770000   86.280794      2.6373499      1.7582525      3979.5599    
   3780000   86.280795      2.6441278      1.7627712      3979.5664    
   3790000   86.280794      2.6428067      1.7618905      3979.565     
   3800000   86.280794      2.6444026      1.7629544      3979.5665    
   3810000   86.280795      2.6441028      1.7627545      3979.5663    
   3820000   86.280794      2.6512603      1.7675263      3979.5726    
   3830000   86.280794      2.6454351      1.7636427      3979.5675    
   3840000   86.280795      2.6461287      1.7641052      3979.5682    
   3850000   86.280794      2.6455339      1.7637086      3979.5674    
   3860000   86.280795      2.6459621      1.7639941      3979.5681    
   3870000   86.280795      2.6415578      1.7610578      3979.564     
   3880000   86.280795      2.6387008      1.7591532      3979.5613    
   3890000   86.280795      2.6458721      1.763934       3979.5679    
   3900000   86.280794      2.6403863      1.7602768      3979.5629    
   3910000   86.280794      2.6373465      1.7582503      3979.56      
   3920000   86.280795      2.6471559      1.7647899      3979.5692    
   3930000   86.280794      2.6513301      1.7675728      3979.573     
   3940000   86.280795      2.648941       1.76598        3979.5709    
   3950000   86.280795      2.6409217      1.7606338      3979.5634    
   3960000   86.280794      2.6462913      1.7642136      3979.5682    
   3970000   86.280794      2.6523035      1.7682217      3979.5737    
   3980000   86.280794      2.6408584      1.7605915      3979.5631    
   3990000   86.280794      2.6472468      1.7648505      3979.5692    
   4000000   86.280794      2.6405245      1.760369       3979.5627    
   4010000   86.280795      2.6451942      1.7634821      3979.5676    
   4020000   86.280794      2.6499233      1.7666349      3979.5714    
   4030000   86.280794      2.6466203      1.7644329      3979.5686    
   4040000   86.280795      2.641067       1.7607306      3979.5635    
   4050000   86.280795      2.6473896      1.7649458      3979.5696    
   4060000   86.280795      2.6353558      1.7569232      3979.5582    
   4070000   86.280794      2.6444531      1.7629881      3979.5665    
   4080000   86.280795      2.6516945      1.7678157      3979.5734    
   4090000   86.280794      2.6405538      1.7603885      3979.5629    
   4100000   86.280794      2.6394349      1.7596425      3979.5618    
   4110000   86.280795      2.6491909      1.7661466      3979.5711    
   4120000   86.280794      2.6392926      1.7595477      3979.5618    
   4130000   86.280795      2.645705       1.7638227      3979.5679    
   4140000   86.280795      2.6465215      1.764367       3979.5687    
   4150000   86.280794      2.6380069      1.7586906      3979.5605    
   4160000   86.280794      2.6426361      1.7617767      3979.5649    
   4170000   86.280794      2.6511296      1.7674391      3979.5726    
   4180000   86.280795      2.6468871      1.7646108      3979.569     
   4190000   86.280794      2.6522973      1.7682176      3979.5736    
   4200000   86.280794      2.6420356      1.7613764      3979.5643    
   4210000   86.280795      2.6443619      1.7629273      3979.5665    
   4220000   86.280794      2.6443515      1.7629203      3979.5663    
   4230000   86.280794      2.641286       1.7608766      3979.5636    
   4240000   86.280794      2.6362661      1.75753        3979.5588    
   4250000   86.280795      2.6509992      1.7673522      3979.5727    
   4260000   86.280795      2.6431856      1.762143       3979.5655    
   4270000   86.280795      2.6491232      1.7661015      3979.5709    
   4280000   86.280795      2.6420049      1.7613559      3979.5646    
   4290000   86.280794      2.6425386      1.7617117      3979.5647    
   4300000   86.280795      2.6443895      1.7629457      3979.5665    
   4310000   86.280794      2.6439563      1.7626569      3979.566     
   4320000   86.280795      2.6415602      1.7610595      3979.5639    
   4330000   86.280795      2.6373573      1.7582575      3979.5601    
   4340000   86.280795      2.6494434      1.766315       3979.5713    
   4350000   86.280794      2.6387473      1.7591841      3979.5613    
   4360000   86.280794      2.6462807      1.7642064      3979.5683    
   4370000   86.280795      2.642408       1.7616247      3979.5648    
   4380000   86.280794      2.6433606      1.7622597      3979.5656    
   4390000   86.280794      2.6494057      1.7662898      3979.5711    
   4400000   86.280794      2.6364353      1.7576428      3979.5591    
   4410000   86.280795      2.6420295      1.7613723      3979.5645    
   4420000   86.280795      2.6447951      1.7632161      3979.567     
   4430000   86.280795      2.6441975      1.7628177      3979.5663    
   4440000   86.280795      2.6491465      1.7661171      3979.571     
   4450000   86.280795      2.6384719      1.7590005      3979.5611    
   4460000   86.280795      2.6526329      1.7684413      3979.5744    
   4470000   86.280794      2.6448781      1.7632714      3979.5668    
   4480000   86.280794      2.6448844      1.7632756      3979.5669    
   4490000   86.280794      2.6401922      1.7601474      3979.5626    
   4500000   86.280794      2.6401301      1.760106       3979.5624    
   4510000   86.280794      2.6463985      1.764285       3979.5683    
   4520000   86.280795      2.6409831      1.7606747      3979.5636    
   4530000   86.280794      2.6516033      1.7677549      3979.5733    
   4540000   86.280795      2.6521038      1.7680886      3979.5738    
   4550000   86.280795      2.6493894      1.7662789      3979.5712    
   4560000   86.280795      2.6476401      1.7651128      3979.5696    
   4570000   86.280795      2.6373922      1.7582807      3979.56      
   4580000   86.280794      2.6528736      1.7686018      3979.5742    
   4590000   86.280794      2.6498166      1.7665637      3979.5714    
   4600000   86.280794      2.6490271      1.7660374      3979.5709    
   4610000   86.280794      2.6433372      1.7622441      3979.5656    
   4620000   86.280794      2.6430882      1.7620781      3979.5652    
   4630000   86.280794      2.65157        1.7677327      3979.5731    
   4640000   86.280794      2.6408056      1.7605564      3979.5632    
   4650000   86.280795      2.642797       1.761884       3979.5651    
   4660000   86.280795      2.6532424      1.7688477      3979.5748    
   4670000   86.280795      2.6462249      1.7641693      3979.5683    
   4680000   86.280795      2.6459318      1.7639739      3979.5681    
   4690000   86.280795      2.6423253      1.7615695      3979.5647    
   4700000   86.280795      2.6531966      1.7688171      3979.5747    
   4710000   86.280794      2.6397475      1.7598509      3979.5621    
   4720000   86.280794      2.6460835      1.764075       3979.568     
   4730000   86.280795      2.6457564      1.763857       3979.5679    
   4740000   86.280794      2.6516525      1.7677877      3979.5731    
   4750000   86.280795      2.6493898      1.7662792      3979.5714    
   4760000   86.280795      2.6454143      1.7636289      3979.5676    
   4770000   86.280794      2.6488722      1.7659342      3979.5706    
   4780000   86.280795      2.6489421      1.7659807      3979.5708    
   4790000   86.280794      2.6518143      1.7678956      3979.5733    
   4800000   86.280794      2.6493546      1.7662558      3979.5711    
   4810000   86.280794      2.6440068      1.7626905      3979.5661    
   4820000   86.280794      2.6494184      1.7662983      3979.571     
   4830000   86.280794      2.6466871      1.7644774      3979.5685    
   4840000   86.280794      2.6407484      1.7605182      3979.563     
   4850000   86.280794      2.6498276      1.7665711      3979.5715    
   4860000   86.280794      2.6384894      1.7590122      3979.561     
   4870000   86.280794      2.6275311      1.7517066      3979.5508    
   4880000   86.280794      2.64444        1.7629793      3979.5665    
   4890000   86.280794      2.6461169      1.7640973      3979.568     
   4900000   86.280795      2.6476788      1.7651386      3979.5697    
   4910000   86.280794      2.6468958      1.7646166      3979.5688    
   4920000   86.280795      2.6406881      1.7604781      3979.5631    
   4930000   86.280795      2.6393624      1.7595942      3979.5619    
   4940000   86.280794      2.6396953      1.7598161      3979.5622    
   4950000   86.280794      2.6380129      1.7586945      3979.5606    
   4960000   86.280794      2.6521541      1.7681221      3979.5737    
   4970000   86.280795      2.6457971      1.7638841      3979.568     
   4980000   86.280795      2.6484138      1.7656285      3979.5703    
   4990000   86.280795      2.6475443      1.7650489      3979.5695    
   5000000   86.280794      2.6405727      1.7604011      3979.563     
   5010000   86.280795      2.6431212      1.7621001      3979.5654    
   5020000   86.280795      2.6455327      1.7637078      3979.5677    
   5030000   86.280795      2.6479228      1.7653012      3979.5699    
   5040000   86.280794      2.6555767      1.7704039      3979.5768    
   5050000   86.280794      2.6431491      1.7621187      3979.5652    
   5060000   86.280794      2.6416158      1.7610965      3979.5639    
   5070000   86.280794      2.6370366      1.7580437      3979.5596    
   5080000   86.280795      2.6452612      1.7635268      3979.5674    
   5090000   86.280794      2.6412424      1.7608476      3979.5634    
   5100000   86.280795      2.6415052      1.7610228      3979.5639    
   5110000   86.280795      2.6427519      1.7618539      3979.5651    
   5120000   86.280795      2.6447003      1.7631529      3979.567     
   5130000   86.280795      2.6465931      1.7644147      3979.5688    
   5140000   86.280795      2.6511655      1.767463       3979.5731    
   5150000   86.280794      2.6364809      1.7576732      3979.5591    
   5160000   86.280794      2.6450659      1.7633966      3979.5672    
   5170000   86.280795      2.6543543      1.7695889      3979.5759    
   5180000   86.280794      2.6443212      1.7629001      3979.5663    
   5190000   86.280795      2.6401153      1.7600962      3979.5626    
   5200000   86.280794      2.6406739      1.7604686      3979.5628    
   5210000   86.280794      2.640596       1.7604166      3979.5629    
   5220000   86.280795      2.6491837      1.7661418      3979.571     
   5230000   86.280794      2.6466418      1.7644472      3979.5686    
   5240000   86.280795      2.6416562      1.7611235      3979.564     
   5250000   86.280795      2.6399621      1.759994       3979.5625    
   5260000   86.280795      2.6363443      1.7575821      3979.5591    
   5270000   86.280795      2.6434074      1.762291       3979.5657    
   5280000   86.280794      2.6417702      1.7611994      3979.564     
   5290000   86.280794      2.6372447      1.7581824      3979.5598    
   5300000   86.280795      2.63713        1.7581059      3979.5599    
   5310000   86.280794      2.6452148      1.7634958      3979.5672    
   5320000   86.280795      2.6437324      1.7625076      3979.5659    
   5330000   86.280794      2.6464116      1.7642937      3979.5683    
   5340000   86.280794      2.6443983      1.7629515      3979.5663    
   5350000   86.280794      2.6344622      1.7563274      3979.557     
   5360000   86.280795      2.6454169      1.7636306      3979.5677    
   5370000   86.280794      2.6405737      1.7604018      3979.5628    
   5380000   86.280795      2.64576        1.7638593      3979.5678    
   5390000   86.280795      2.6382417      1.7588471      3979.5611    
   5400000   86.280794      2.6389629      1.7593279      3979.5615    
   5410000   86.280794      2.6461429      1.7641146      3979.5681    
   5420000   86.280794      2.6448244      1.7632356      3979.5669    
   5430000   86.280794      2.6394117      1.7596271      3979.5619    
   5440000   86.280795      2.6447862      1.7632101      3979.567     
   5450000   86.280794      2.6362141      1.7574953      3979.5589    
   5460000   86.280794      2.6509409      1.7673133      3979.5726    
   5470000   86.280794      2.64959        1.7664127      3979.5714    
   5480000   86.280795      2.6422466      1.7615171      3979.5647    
   5490000   86.280794      2.6435147      1.7623625      3979.5656    
   5500000   86.280795      2.6423919      1.7616139      3979.5648    
   5510000   86.280795      2.6506243      1.7671022      3979.5724    
   5520000   86.280795      2.6493867      1.7662771      3979.5713    
   5530000   86.280795      2.6415696      1.7610657      3979.5642    
   5540000   86.280794      2.6447912      1.7632135      3979.5668    
   5550000   86.280795      2.6407059      1.7604899      3979.5631    
   5560000   86.280795      2.6409242      1.7606354      3979.5634    
   5570000   86.280795      2.6541768      1.7694706      3979.5757    
   5580000   86.280794      2.6360713      1.7574001      3979.5587    
   5590000   86.280794      2.6430533      1.7620548      3979.5652    
   5600000   86.280794      2.6459606      1.7639931      3979.5679    
   5610000   86.280794      2.641751       1.7611866      3979.564     
   5620000   86.280795      2.6306752      1.7538027      3979.554     
   5630000   86.280794      2.6395311      1.7597067      3979.562     
   5640000   86.280794      2.6426768      1.7618039      3979.5648    
   5650000   86.280794      2.6412544      1.7608556      3979.5635    
   5660000   86.280795      2.6454424      1.7636476      3979.5675    
   5670000   86.280794      2.6494027      1.7662878      3979.5711    
   5680000   86.280795      2.643096       1.7620833      3979.5655    
   5690000   86.280795      2.6407131      1.7604947      3979.5632    
   5700000   86.280794      2.6436043      1.7624222      3979.5657    
   5710000   86.280795      2.6487122      1.7658275      3979.5706    
   5720000   86.280794      2.6482274      1.7655043      3979.5699    
   5730000   86.280795      2.6405301      1.7603727      3979.563     
   5740000   86.280794      2.6484496      1.7656524      3979.5702    
   5750000   86.280794      2.6356173      1.7570975      3979.5582    
   5760000   86.280795      2.6421698      1.7614659      3979.5646    
   5770000   86.280795      2.64602        1.7640327      3979.5681    
   5780000   86.280794      2.6468122      1.7645608      3979.5688    
   5790000   86.280795      2.6537277      1.7691712      3979.5753    
   5800000   86.280795      2.6478074      1.7652243      3979.5698    
   5810000   86.280794      2.6438194      1.7625656      3979.5658    
   5820000   86.280794      2.6370009      1.7580199      3979.5595    
   5830000   86.280795      2.6467477      1.7645178      3979.5687    
   5840000   86.280794      2.6433382      1.7622448      3979.5654    
   5850000   86.280795      2.641085       1.7607426      3979.5635    
   5860000   86.280794      2.6432095      1.762159       3979.5654    
   5870000   86.280795      2.6363782      1.7576047      3979.5592    
   5880000   86.280794      2.6408271      1.7605707      3979.5633    
   5890000   86.280795      2.6462583      1.7641915      3979.5683    
   5900000   86.280794      2.6421885      1.7614783      3979.5645    
   5910000   86.280795      2.6370129      1.7580279      3979.5599    
   5920000   86.280794      2.643623       1.7624347      3979.5658    
   5930000   86.280794      2.6443972      1.7629508      3979.5665    
   5940000   86.280794      2.6521412      1.7681135      3979.5737    
   5950000   86.280795      2.6458663      1.7639302      3979.5681    
   5960000   86.280795      2.6445466      1.7630504      3979.5668    
   5970000   86.280795      2.6391578      1.7594578      3979.5617    
   5980000   86.280794      2.6400961      1.7600834      3979.5625    
   5990000   86.280794      2.6408771      1.7606041      3979.5631    
   6000000   86.280795      2.6429671      1.7619974      3979.5654    
   6010000   86.280794      2.6425131      1.7616947      3979.5647    
   6020000   86.280794      2.6513696      1.7675991      3979.5729    
   6030000   86.280795      2.6413545      1.7609223      3979.564     
   6040000   86.280794      2.6413931      1.760948       3979.5637    
   6050000   86.280795      2.6449911      1.7633467      3979.5672    
   6060000   86.280794      2.638185       1.7588093      3979.5607    
   6070000   86.280794      2.6453193      1.7635655      3979.5673    
   6080000   86.280794      2.6407269      1.7605039      3979.5632    
   6090000   86.280795      2.6436971      1.7624841      3979.566     
   6100000   86.280795      2.648333       1.7655747      3979.5702    
   6110000   86.280794      2.6455065      1.7636903      3979.5674    
   6120000   86.280794      2.6441333      1.7627749      3979.5662    
   6130000   86.280795      2.644467       1.7629974      3979.5668    
   6140000   86.280795      2.6478566      1.7652571      3979.5698    
   6150000   86.280794      2.6378856      1.7586097      3979.5604    
   6160000   86.280795      2.642782       1.761874       3979.5653    
   6170000   86.280795      2.6510912      1.7674135      3979.5728    
   6180000   86.280794      2.6477601      1.7651928      3979.5695    
   6190000   86.280794      2.6490786      1.7660718      3979.5709    
   6200000   86.280794      2.6413944      1.7609489      3979.5636    
   6210000   86.280794      2.6454821      1.763674       3979.5675    
   6220000   86.280794      2.6410084      1.7606916      3979.5632    
   6230000   86.280794      2.6321291      1.754772       3979.5552    
   6240000   86.280794      2.6547872      1.7698775      3979.576     
   6250000   86.280795      2.6485589      1.7657253      3979.5704    
   6260000   86.280794      2.6428717      1.7619338      3979.5652    
   6270000   86.280795      2.647021       1.7647         3979.569     
   6280000   86.280794      2.638841       1.7592466      3979.5614    
   6290000   86.280795      2.6457012      1.7638201      3979.5678    
   6300000   86.280794      2.6478427      1.7652478      3979.5697    
   6310000   86.280794      2.6397868      1.7598772      3979.5623    
   6320000   86.280794      2.6471098      1.7647592      3979.569     
   6330000   86.280795      2.6448049      1.7632226      3979.567     
   6340000   86.280794      2.6470615      1.764727       3979.5689    
   6350000   86.280795      2.6458003      1.7638862      3979.5681    
   6360000   86.280794      2.6405968      1.7604171      3979.563     
   6370000   86.280794      2.635086       1.7567432      3979.5579    
   6380000   86.280795      2.6481806      1.7654731      3979.5701    
   6390000   86.280795      2.6467399      1.7645126      3979.5687    
   6400000   86.280794      2.6416076      1.761091       3979.5638    
   6410000   86.280795      2.6459102      1.7639595      3979.5681    
   6420000   86.280794      2.6487766      1.7658705      3979.5705    
   6430000   86.280795      2.6454277      1.7636378      3979.5675    
   6440000   86.280795      2.6567272      1.7711709      3979.5781    
   6450000   86.280795      2.6491905      1.7661464      3979.5712    
   6460000   86.280795      2.6537897      1.7692126      3979.5753    
   6470000   86.280795      2.6437462      1.7625168      3979.566     
   6480000   86.280795      2.6496142      1.7664289      3979.5714    
   6490000   86.280794      2.6369905      1.758013       3979.5596    
   6500000   86.280795      2.6486464      1.7657836      3979.5706    
   6510000   86.280794      2.6398671      1.7599307      3979.5621    
   6520000   86.280794      2.6472889      1.7648786      3979.5691    
   6530000   86.280794      2.6406696      1.7604657      3979.5631    
   6540000   86.280795      2.6429641      1.7619954      3979.5655    
   6550000   86.280795      2.6578475      1.7719177      3979.579     
   6560000   86.280794      2.6429221      1.7619674      3979.5651    
   6570000   86.280794      2.6505233      1.7670349      3979.5721    
   6580000   86.280795      2.6479609      1.7653266      3979.5699    
   6590000   86.280794      2.642187       1.7614773      3979.5645    
   6600000   86.280795      2.6446234      1.7631016      3979.5669    
   6610000   86.280795      2.650169       1.7667987      3979.572     
   6620000   86.280794      2.6407229      1.7605013      3979.5627    
   6630000   86.280794      2.6453409      1.7635799      3979.5673    
   6640000   86.280794      2.6337239      1.7558352      3979.5567    
   6650000   86.280794      2.6468693      1.7645989      3979.5687    
   6660000   86.280794      2.6410202      1.7606994      3979.5634    
   6670000   86.280794      2.648507       1.7656907      3979.5703    
   6680000   86.280794      2.6446216      1.7631004      3979.5666    
   6690000   86.280794      2.6506749      1.767136       3979.5722    
   6700000   86.280795      2.6488098      1.7658926      3979.5707    
   6710000   86.280794      2.6396667      1.7597971      3979.5621    
   6720000   86.280794      2.6463012      1.7642201      3979.5683    
   6730000   86.280794      2.6428912      1.7619468      3979.5651    
   6740000   86.280795      2.644113       1.7627613      3979.5662    
   6750000   86.280795      2.6544804      1.769673       3979.576     
   6760000   86.280794      2.6449882      1.7633448      3979.5671    
   6770000   86.280795      2.6424414      1.7616469      3979.5647    
   6780000   86.280795      2.6418902      1.7612794      3979.5644    
   6790000   86.280794      2.641532       1.7610407      3979.5638    
   6800000   86.280794      2.6538113      1.7692269      3979.5752    
   6810000   86.280795      2.6416199      1.7610993      3979.5641    
   6820000   86.280795      2.6498695      1.7665991      3979.5717    
   6830000   86.280795      2.6497406      1.7665131      3979.5717    
   6840000   86.280795      2.6496284      1.7664383      3979.5715    
   6850000   86.280795      2.6414565      1.7609903      3979.5639    
   6860000   86.280794      2.645996       1.7640167      3979.5679    
   6870000   86.280794      2.6484252      1.7656362      3979.5703    
   6880000   86.280794      2.65267        1.768466       3979.5741    
   6890000   86.280794      2.6402911      1.7602134      3979.5625    
   6900000   86.280794      2.6350154      1.7566962      3979.5578    
   6910000   86.280794      2.6577305      1.7718398      3979.5787    
   6920000   86.280794      2.6512619      1.7675273      3979.5729    
   6930000   86.280794      2.6537668      1.7691973      3979.5751    
   6940000   86.280794      2.6479671      1.7653308      3979.5699    
   6950000   86.280795      2.6506848      1.7671426      3979.5725    
   6960000   86.280795      2.6454429      1.7636479      3979.5677    
   6970000   86.280794      2.6507895      1.7672124      3979.5724    
   6980000   86.280795      2.6415445      1.761049       3979.5641    
   6990000   86.280795      2.6436964      1.7624836      3979.5659    
   7000000   86.280795      2.643582       1.7624073      3979.5658    
   7010000   86.280795      2.6544474      1.769651       3979.5759    
   7020000   86.280794      2.6475183      1.7650316      3979.5693    
   7030000   86.280795      2.6501762      1.7668035      3979.572     
   7040000   86.280794      2.6468281      1.7645714      3979.5687    
   7050000   86.280795      2.6480111      1.7653601      3979.5699    
   7060000   86.280795      2.6464203      1.7642995      3979.5684    
   7070000   86.280794      2.64065        1.7604526      3979.5629    
   7080000   86.280794      2.6483611      1.7655934      3979.5701    
   7090000   86.280795      2.651739       1.7678454      3979.5733    
   7100000   86.280794      2.6407344      1.7605089      3979.5632    
   7110000   86.280795      2.6334472      1.7556507      3979.5566    
   7120000   86.280794      2.6412429      1.7608479      3979.5635    
   7130000   86.280794      2.647116       1.7647633      3979.5689    
   7140000   86.280795      2.6485176      1.7656978      3979.5705    
   7150000   86.280794      2.6542805      1.7695397      3979.5757    
   7160000   86.280795      2.6439749      1.7626693      3979.5662    
   7170000   86.280794      2.6502317      1.7668405      3979.5719    
   7180000   86.280795      2.6409852      1.7606761      3979.5635    
   7190000   86.280794      2.6457531      1.7638547      3979.5678    
   7200000   86.280794      2.6453485      1.763585       3979.5672    
   7210000   86.280795      2.6514619      1.7676606      3979.5732    
   7220000   86.280795      2.6432384      1.7621783      3979.5655    
   7230000   86.280794      2.6403731      1.7602681      3979.5627    
   7240000   86.280795      2.644896       1.7632833      3979.5672    
   7250000   86.280794      2.6387086      1.7591583      3979.5611    
   7260000   86.280794      2.62977        1.7531992      3979.5529    
   7270000   86.280795      2.6472548      1.7648559      3979.5692    
   7280000   86.280794      2.6456753      1.7638029      3979.5677    
   7290000   86.280794      2.6441702      1.7627994      3979.5664    
   7300000   86.280794      2.6468642      1.7645955      3979.5685    
   7310000   86.280794      2.6431886      1.7621451      3979.5654    
   7320000   86.280795      2.6472177      1.7648311      3979.5692    
   7330000   86.280794      2.6455959      1.7637499      3979.5675    
   7340000   86.280795      2.6346029      1.7564212      3979.5576    
   7350000   86.280795      2.6489127      1.7659612      3979.5709    
   7360000   86.280794      2.6424644      1.7616622      3979.5646    
   7370000   86.280794      2.6440767      1.7627371      3979.5662    
   7380000   86.280795      2.6398047      1.7598891      3979.5623    
   7390000   86.280794      2.63969        1.7598126      3979.5621    
   7400000   86.280794      2.6439412      1.7626468      3979.5661    
   7410000   86.280794      2.6421916      1.7614804      3979.5644    
   7420000   86.280794      2.6361613      1.7574601      3979.5588    
   7430000   86.280795      2.6508118      1.7672272      3979.5725    
   7440000   86.280794      2.641641       1.7611133      3979.564     
   7450000   86.280795      2.642005       1.761356       3979.5644    
   7460000   86.280794      2.6448588      1.7632585      3979.5668    
   7470000   86.280795      2.6523621      1.7682608      3979.5741    
   7480000   86.280794      2.6453734      1.7636016      3979.5674    
   7490000   86.280794      2.6403391      1.7602454      3979.5628    
   7500000   86.280795      2.6428505      1.7619196      3979.5652    
   7510000   86.280794      2.6508949      1.7672826      3979.5725    
   7520000   86.280795      2.6420066      1.7613571      3979.5645    
   7530000   86.280794      2.638032       1.7587073      3979.5606    
   7540000   86.280795      2.6491835      1.7661417      3979.5711    
   7550000   86.280794      2.6420319      1.7613739      3979.5643    
   7560000   86.280794      2.644072       1.762734       3979.5662    
   7570000   86.280794      2.6475057      1.7650231      3979.5693    
   7580000   86.280794      2.6418786      1.7612717      3979.5641    
   7590000   86.280794      2.6378376      1.7585777      3979.5604    
   7600000   86.280794      2.6447127      1.7631611      3979.5668    
   7610000   86.280795      2.6413973      1.7609508      3979.5639    
   7620000   86.280794      2.6435342      1.7623755      3979.5655    
   7630000   86.280795      2.6421901      1.7614794      3979.5645    
   7640000   86.280795      2.634863       1.7565946      3979.5579    
   7650000   86.280794      2.6546776      1.7698045      3979.5758    
   7660000   86.280794      2.649122       1.7661007      3979.5709    
   7670000   86.280795      2.6426963      1.7618169      3979.565     
   7680000   86.280794      2.6428821      1.7619407      3979.5649    
   7690000   86.280795      2.6359253      1.7573028      3979.5587    
   7700000   86.280794      2.6508762      1.7672702      3979.5725    
   7710000   86.280795      2.6385158      1.7590298      3979.5611    
   7720000   86.280794      2.639276       1.7595367      3979.5616    
   7730000   86.280794      2.6423334      1.7615749      3979.5644    
   7740000   86.280794      2.6445597      1.7630591      3979.5665    
   7750000   86.280795      2.6422293      1.7615055      3979.5646    
   7760000   86.280794      2.6459993      1.7640188      3979.568     
   7770000   86.280795      2.6424102      1.7616261      3979.5647    
   7780000   86.280794      2.6454429      1.763648       3979.5675    
   7790000   86.280794      2.6462977      1.7642178      3979.5683    
   7800000   86.280794      2.6500191      1.7666988      3979.5716    
   7810000   86.280794      2.6464223      1.7643009      3979.5682    
   7820000   86.280794      2.6461268      1.7641039      3979.5682    
   7830000   86.280795      2.6447788      1.7632052      3979.567     
   7840000   86.280794      2.6410174      1.7606976      3979.5634    
   7850000   86.280795      2.648669       1.7657987      3979.5705    
   7860000   86.280795      2.6332481      1.755518       3979.5562    
   7870000   86.280795      2.6426709      1.7617999      3979.5651    
   7880000   86.280794      2.6480339      1.7653753      3979.5698    
   7890000   86.280794      2.6411501      1.760786       3979.5633    
   7900000   86.280795      2.6363666      1.757597       3979.5592    
   7910000   86.280794      2.6567493      1.7711856      3979.578     
   7920000   86.280794      2.6459887      1.7640118      3979.568     
   7930000   86.280794      2.6445557      1.7630564      3979.5667    
   7940000   86.280795      2.6492435      1.7661817      3979.5711    
   7950000   86.280794      2.6408916      1.7606137      3979.5631    
   7960000   86.280795      2.6408958      1.7606165      3979.5632    
   7970000   86.280794      2.642895       1.7619493      3979.565     
   7980000   86.280795      2.6405031      1.7603547      3979.5629    
   7990000   86.280795      2.6463547      1.7642558      3979.5685    
   8000000   86.280794      2.6476407      1.7651132      3979.5694    
   8010000   86.280794      2.6401319      1.7601072      3979.5626    
   8020000   86.280794      2.6485626      1.7657278      3979.5702    
   8030000   86.280795      2.6432986      1.7622184      3979.5656    
   8040000   86.280795      2.6461718      1.7641339      3979.5683    
   8050000   86.280794      2.640705       1.7604893      3979.5631    
   8060000   86.280795      2.6386684      1.7591316      3979.5613    
   8070000   86.280794      2.6461397      1.7641125      3979.5681    
   8080000   86.280795      2.636883       1.7579413      3979.5597    
   8090000   86.280795      2.6342902      1.7562127      3979.5573    
   8100000   86.280795      2.6504939      1.7670153      3979.5723    
   8110000   86.280794      2.6479442      1.7653155      3979.5696    
   8120000   86.280795      2.6450453      1.7633829      3979.5673    
   8130000   86.280794      2.6407776      1.7605377      3979.5632    
   8140000   86.280794      2.6402342      1.7601754      3979.5626    
   8150000   86.280794      2.6461439      1.7641153      3979.5681    
   8160000   86.280795      2.642814       1.7618953      3979.565     
   8170000   86.280795      2.6447898      1.7632125      3979.567     
   8180000   86.280794      2.6455824      1.7637409      3979.5675    
   8190000   86.280794      2.6461594      1.7641256      3979.5681    
   8200000   86.280795      2.6391798      1.7594725      3979.5618    
   8210000   86.280795      2.6363844      1.7576089      3979.5592    
   8220000   86.280794      2.6474173      1.7649642      3979.5693    
   8230000   86.280794      2.6447195      1.7631657      3979.5668    
   8240000   86.280795      2.6408605      1.760593       3979.5632    
   8250000   86.280795      2.6370766      1.7580704      3979.56      
   8260000   86.280794      2.649069       1.7660653      3979.571     
   8270000   86.280795      2.6465774      1.7644043      3979.5685    
   8280000   86.280794      2.6390705      1.7593996      3979.5616    
   8290000   86.280794      2.6480866      1.7654104      3979.5698    
   8300000   86.280794      2.6483524      1.7655876      3979.57      
   8310000   86.280795      2.644408       1.762958       3979.5667    
   8320000   86.280794      2.6488127      1.7658945      3979.5706    
   8330000   86.280794      2.6515082      1.7676915      3979.5731    
   8340000   86.280794      2.6451558      1.7634565      3979.5673    
   8350000   86.280795      2.6491899      1.766146       3979.571     
   8360000   86.280795      2.6392943      1.7595489      3979.5619    
   8370000   86.280794      2.6430186      1.7620317      3979.5654    
   8380000   86.280795      2.637283       1.7582079      3979.56      
   8390000   86.280794      2.6427274      1.7618376      3979.5648    
   8400000   86.280795      2.6376255      1.7584363      3979.5603    
   8410000   86.280795      2.6466699      1.7644659      3979.5686    
   8420000   86.280795      2.6401737      1.7601351      3979.5628    
   8430000   86.280795      2.6429205      1.7619663      3979.5652    
   8440000   86.280794      2.6441171      1.7627641      3979.5662    
   8450000   86.280794      2.6374901      1.758346       3979.5602    
   8460000   86.280794      2.6444183      1.7629649      3979.5664    
   8470000   86.280794      2.6450194      1.7633656      3979.5669    
   8480000   86.280794      2.6578566      1.7719238      3979.579     
   8490000   86.280794      2.6417864      1.7612103      3979.564     
   8500000   86.280794      2.6458066      1.7638904      3979.5677    
   8510000   86.280794      2.6452441      1.7635154      3979.5673    
   8520000   86.280795      2.6431828      1.7621412      3979.5655    
   8530000   86.280794      2.6521697      1.7681325      3979.5736    
   8540000   86.280794      2.6544431      1.7696481      3979.5757    
   8550000   86.280794      2.6510395      1.7673791      3979.5726    
   8560000   86.280794      2.6442475      1.762851       3979.5664    
   8570000   86.280795      2.64127        1.760866       3979.5637    
   8580000   86.280794      2.6543359      1.7695767      3979.5754    
   8590000   86.280795      2.6425741      1.7617354      3979.565     
   8600000   86.280795      2.6593704      1.772933       3979.5806    
   8610000   86.280795      2.6374516      1.7583204      3979.5601    
   8620000   86.280794      2.6397849      1.7598759      3979.5621    
   8630000   86.280795      2.6441794      1.7628056      3979.5664    
   8640000   86.280794      2.6450553      1.7633896      3979.5671    
   8650000   86.280794      2.643402       1.7622873      3979.5654    
   8660000   86.280794      2.6366213      1.7577668      3979.5593    
   8670000   86.280794      2.6350321      1.7567073      3979.5578    
   8680000   86.280794      2.6407778      1.7605379      3979.5631    
   8690000   86.280795      2.6458233      1.7639016      3979.5681    
   8700000   86.280794      2.6413461      1.7609167      3979.5635    
   8710000   86.280794      2.6496356      1.7664431      3979.5713    
   8720000   86.280794      2.641449       1.7609853      3979.5638    
   8730000   86.280795      2.6427963      1.7618835      3979.565     
   8740000   86.280795      2.6515578      1.7677246      3979.5733    
   8750000   86.280794      2.6439651      1.7626628      3979.5661    
   8760000   86.280794      2.6411727      1.7608011      3979.5634    
   8770000   86.280795      2.6377387      1.7585117      3979.5604    
   8780000   86.280794      2.6404076      1.7602911      3979.5628    
   8790000   86.280795      2.646736       1.76451        3979.5687    
   8800000   86.280794      2.6409115      1.7606269      3979.5631    
   8810000   86.280794      2.644267       1.762864       3979.5664    
   8820000   86.280794      2.6471277      1.7647712      3979.569     
   8830000   86.280794      2.6493059      1.7662233      3979.5711    
   8840000   86.280795      2.6501723      1.7668009      3979.5719    
   8850000   86.280794      2.6367515      1.7578536      3979.5594    
   8860000   86.280795      2.6395159      1.7596965      3979.5619    
   8870000   86.280794      2.6474215      1.764967       3979.5693    
   8880000   86.280794      2.6464026      1.7642878      3979.5684    
   8890000   86.280795      2.6493093      1.7662256      3979.5713    
   8900000   86.280794      2.6422706      1.761533       3979.5646    
   8910000   86.280794      2.6417348      1.7611759      3979.564     
   8920000   86.280795      2.6489788      1.7660052      3979.5709    
   8930000   86.280794      2.6474194      1.7649656      3979.5691    
   8940000   86.280794      2.6333663      1.7555968      3979.5562    
   8950000   86.280794      2.6358699      1.7572658      3979.5586    
   8960000   86.280794      2.6468313      1.7645736      3979.5687    
   8970000   86.280795      2.6460333      1.7640415      3979.5681    
   8980000   86.280795      2.6420722      1.7614008      3979.5644    
   8990000   86.280794      2.6511533      1.7674549      3979.5728    
   9000000   86.280794      2.6418436      1.7612484      3979.5642    
   9010000   86.280795      2.6427163      1.7618302      3979.565     
   9020000   86.280794      2.6415697      1.7610658      3979.5638    
   9030000   86.280795      2.6431657      1.7621298      3979.5655    
   9040000   86.280795      2.636874       1.7579353      3979.5599    
   9050000   86.280794      2.6388425      1.7592476      3979.5614    
   9060000   86.280795      2.6397143      1.7598288      3979.5622    
   9070000   86.280795      2.6447394      1.7631789      3979.567     
   9080000   86.280795      2.6367593      1.7578588      3979.5595    
   9090000   86.280795      2.6412191      1.7608321      3979.5636    
   9100000   86.280794      2.6419844      1.7613422      3979.5643    
   9110000   86.280795      2.6405434      1.7603816      3979.5632    
   9120000   86.280795      2.6520744      1.768069       3979.5738    
   9130000   86.280794      2.6381025      1.7587543      3979.5605    
   9140000   86.280794      2.6522836      1.7682085      3979.5738    
   9150000   86.280795      2.6390237      1.7593684      3979.5616    
   9160000   86.280794      2.6390266      1.7593704      3979.5614    
   9170000   86.280794      2.6522039      1.7681553      3979.5736    
   9180000   86.280794      2.6383304      1.7589062      3979.5609    
   9190000   86.280795      2.6474792      1.7650055      3979.5694    
   9200000   86.280794      2.6484331      1.7656414      3979.5704    
   9210000   86.280794      2.6368881      1.7579447      3979.5595    
   9220000   86.280794      2.6422858      1.7615432      3979.5644    
   9230000   86.280795      2.6404022      1.7602874      3979.5629    
   9240000   86.280794      2.6478623      1.7652609      3979.5698    
   9250000   86.280794      2.6375189      1.7583652      3979.5602    
   9260000   86.280795      2.6404872      1.7603441      3979.5631    
   9270000   86.280795      2.6409352      1.7606428      3979.5634    
   9280000   86.280794      2.6542793      1.7695389      3979.5757    
   9290000   86.280794      2.6459508      1.7639866      3979.5679    
   9300000   86.280794      2.6462998      1.7642192      3979.5682    
   9310000   86.280795      2.6475418      1.7650472      3979.5695    
   9320000   86.280795      2.6474712      1.7650001      3979.5695    
   9330000   86.280794      2.6435998      1.7624192      3979.5657    
   9340000   86.280795      2.640088       1.7600779      3979.5626    
   9350000   86.280794      2.6508131      1.7672281      3979.5724    
   9360000   86.280794      2.6387575      1.759191       3979.5611    
   9370000   86.280794      2.6483621      1.7655941      3979.5702    
   9380000   86.280795      2.6368044      1.7578888      3979.5595    
   9390000   86.280795      2.6375875      1.758411       3979.5603    
   9400000   86.280795      2.6374458      1.7583164      3979.56      
   9410000   86.280795      2.6586424      1.7724477      3979.5798    
   9420000   86.280794      2.6381021      1.758754       3979.5606    
   9430000   86.280794      2.6511696      1.7674658      3979.5728    
   9440000   86.280795      2.6413728      1.7609345      3979.5637    
   9450000   86.280794      2.6391593      1.7594588      3979.5616    
   9460000   86.280794      2.6501319      1.7667739      3979.5718    
   9470000   86.280794      2.6468249      1.7645693      3979.5686    
   9480000   86.280795      2.6366086      1.7577583      3979.5595    
   9490000   86.280794      2.6505402      1.7670461      3979.5721    
   9500000   86.280795      2.6519712      1.7680002      3979.5735    
   9510000   86.280794      2.6491911      1.7661468      3979.5708    
   9520000   86.280794      2.647521       1.7650334      3979.5694    
   9530000   86.280795      2.6465331      1.7643747      3979.5686    
   9540000   86.280795      2.6499851      1.7666761      3979.5718    
   9550000   86.280795      2.6418553      1.7612562      3979.5643    
   9560000   86.280794      2.6470698      1.7647325      3979.5689    
   9570000   86.280795      2.6552261      1.7701701      3979.5766    
   9580000   86.280794      2.6451491      1.7634521      3979.5671    
   9590000   86.280795      2.6496421      1.7664474      3979.5716    
   9600000   86.280794      2.6452216      1.7635004      3979.5673    
   9610000   86.280795      2.6462965      1.764217       3979.5685    
   9620000   86.280794      2.649481       1.76634        3979.5711    
   9630000   86.280795      2.643634       1.762442       3979.566     
   9640000   86.280794      2.6387835      1.7592083      3979.5613    
   9650000   86.280794      2.6470872      1.7647442      3979.5689    
   9660000   86.280794      2.6538065      1.7692237      3979.5753    
   9670000   86.280794      2.6410872      1.7607441      3979.5635    
   9680000   86.280795      2.6419112      1.7612934      3979.5643    
   9690000   86.280794      2.6483232      1.7655681      3979.57      
   9700000   86.280794      2.6370363      1.7580435      3979.5597    
   9710000   86.280795      2.6470282      1.7647048      3979.5691    
   9720000   86.280794      2.6380992      1.7587521      3979.5607    
   9730000   86.280794      2.6452596      1.7635257      3979.5674    
   9740000   86.280795      2.6511186      1.7674318      3979.5729    
   9750000   86.280795      2.6425121      1.7616941      3979.5649    
   9760000   86.280795      2.6413019      1.7608872      3979.5637    
   9770000   86.280795      2.6480359      1.7653766      3979.5701    
   9780000   86.280795      2.6436083      1.7624249      3979.5661    
   9790000   86.280795      2.6480765      1.7654037      3979.57      
   9800000   86.280794      2.641642       1.7611139      3979.5639    
   9810000   86.280795      2.6546778      1.7698046      3979.5761    
   9820000   86.280795      2.6426744      1.7618023      3979.565     
   9830000   86.280794      2.6455017      1.7636872      3979.5674    
   9840000   86.280795      2.6448869      1.7632773      3979.5671    
   9850000   86.280795      2.6503422      1.7669142      3979.5722    
   9860000   86.280795      2.6376449      1.7584492      3979.5603    
   9870000   86.280794      2.6417334      1.7611749      3979.5641    
   9880000   86.280795      2.6431605      1.7621263      3979.5656    
   9890000   86.280794      2.6470236      1.7647017      3979.5687    
   9900000   86.280794      2.647825       1.765236       3979.5697    
   9910000   86.280794      2.6483547      1.7655891      3979.5701    
   9920000   86.280795      2.6416347      1.7611091      3979.5641    
   9930000   86.280794      2.6416801      1.7611393      3979.5638    
   9940000   86.280795      2.6380479      1.7587179      3979.5606    
   9950000   86.280795      2.6514871      1.7676774      3979.5733    
   9960000   86.280794      2.6495711      1.7664001      3979.5713    
   9970000   86.280795      2.6481392      1.7654455      3979.57      
   9980000   86.280795      2.6475596      1.7650591      3979.5695    
   9990000   86.280794      2.6470048      1.7646892      3979.569     
  10000000   86.280795      2.6488702      1.7659328      3979.5709    
Loop time of 109655 on 4 procs for 10000000 steps with 91200 atoms

Performance: 787.922 tau/day, 91.195 timesteps/s, 8.317 Matom-step/s
184.9% CPU use with 1 MPI tasks x 4 OpenMP threads

MPI task timing breakdown:
Section |  min time  |  avg time  |  max time  |%varavg| %total
---------------------------------------------------------------
Pair    | 23807      | 23807      | 23807      |   0.0 | 21.71
Neigh   | 10.403     | 10.403     | 10.403     |   0.0 |  0.01
Comm    | 4023.1     | 4023.1     | 4023.1     |   0.0 |  3.67
Output  | 193.41     | 193.41     | 193.41     |   0.0 |  0.18
Modify  | 77462      | 77462      | 77462      |   0.0 | 70.64
Other   |            | 4160       |            |       |  3.79

Nlocal:          91200 ave       91200 max       91200 min
Histogram: 1 0 0 0 0 0 0 0 0 0
Nghost:          16199 ave       16199 max       16199 min
Histogram: 1 0 0 0 0 0 0 0 0 0
Neighs:         538855 ave      538855 max      538855 min
Histogram: 1 0 0 0 0 0 0 0 0 0

Total # of neighbors = 538855
Ave neighs/atom = 5.9084978
Neighbor list builds = 713
Dangerous builds = 0
Total wall time: 30:27:36
