LAMMPS (15 Jun 2023)
OMP_NUM_THREADS environment is not set. Defaulting to 1 thread. (src/comm.cpp:98)
  using 1 OpenMP thread(s) per MPI task
Loaded 1 plugins from C:\Users\noae1\AppData\Local\LAMMPS 64-bit 15Jun2023\plugins
package omp 4
set 4 OpenMP thread(s) per MPI task
using multi-threaded neighbor list subroutines
# ---------- Initialize simulation ---------------------
units lj
atom_style atomic
dimension  3
boundary   p p p
read_data C:/Users/noae1/lammps/results/dislocation1_brownian_rcut_0.932/output/temperature_0.0001_s_1_rstart_0.5_timestep_1e-05_dumpstep_100_nstep_1000/mid_input/loc_test.data
Reading data file ...
  orthogonal box = (-40 -40 0) to (40 40 80.6102)
  1 by 1 by 1 MPI processor grid
  reading atoms ...
  723200 atoms
  read_data CPU = 3.066 seconds
mass * 1.0
group immobile type 2
44160 atoms in group immobile
group mobile type 1
679040 atoms in group mobile

pair_style table linear 10000
pair_coeff * * potential.table power_law 0.932
Reading pair table potential file potential.table with DATE: 2024-9-25

velocity mobile create 0.0001 87287 dist gaussian
velocity immobile set 0.0 0.0 0.0
compute displ all displace/atom
fix 1 all nve
fix 2 mobile brownian 0.0001 3213 gamma_t 1.0
fix 3 mobile recenter INIT INIT INIT
fix 4 immobile setforce 0.0 0.0 0.0
#--------- Dump file ------------------
thermo_style custom step pe ke temp press
thermo 10000
dump 1 all custom 10000 dump.* id type x y z

# --------- Run -------------
timestep 0.001
run 1000000
Generated 0 of 1 mixed pair_coeff terms from geometric mixing rule
Last active /omp style is pair_style table/omp
WARNING: One or more atoms are time integrated more than once (src/modify.cpp:293)
Neighbor list info ...
  update: every = 1 steps, delay = 0 steps, check = yes
  max neighbors/atom: 2000, page size: 100000
  master list distance cutoff = 1.232
  ghost atom cutoff = 1.232
  binsize = 0.616, bins = 130 130 131
  1 neighbor lists, perpetual/occasional/extra = 1 0 0
  (1) pair table/omp, perpetual
      attributes: half, newton on, omp
      pair build: half/bin/atomonly/newton/omp
      stencil: half/bin/3d
      bin: standard
Per MPI rank memory allocation (min/avg/max) = 250.3 | 250.3 | 250.3 Mbytes
   Step         PotEng         KinEng          Temp          Press     
         0   5.0062712e+12  0.0001408405   9.3893797e-05  7.6418222e+14
     10000   5.0062712e+12  0.28496871     0.1899794      7.6418222e+14
     20000   5.0062712e+12  0.2854191      0.19027967     7.6418222e+14
     30000   5.0062712e+12  0.28553407     0.19035631     7.6418222e+14
     40000   5.0062712e+12  0.28535212     0.19023501     7.6418222e+14
     50000   5.0062712e+12  0.28576858     0.19051265     7.6418222e+14
     60000   5.0062712e+12  0.28549059     0.19032733     7.6418222e+14
     70000   5.0062712e+12  0.28603144     0.19068789     7.6418222e+14
     80000   5.0062712e+12  0.28528255     0.19018863     7.6418222e+14
     90000   5.0062712e+12  0.28552356     0.1903493      7.6418222e+14
    100000   5.0062712e+12  0.2857947      0.19053007     7.6418222e+14
    110000   5.0062712e+12  0.28543904     0.19029295     7.6418222e+14
    120000   5.0062712e+12  0.28542908     0.19028631     7.6418222e+14
    130000   5.0062712e+12  0.28577095     0.19051423     7.6418222e+14
    140000   5.0062712e+12  0.28575733     0.19050515     7.6418222e+14
    150000   5.0062712e+12  0.2852897      0.19019339     7.6418222e+14
    160000   5.0062712e+12  0.28549797     0.19033224     7.6418222e+14
    170000   5.0062712e+12  0.28575662     0.19050467     7.6418222e+14
    180000   5.0062712e+12  0.28535636     0.19023783     7.6418222e+14
    190000   5.0062712e+12  0.28550322     0.19033574     7.6418222e+14
    200000   5.0062712e+12  0.28517189     0.19011486     7.6418222e+14
    210000   5.0062712e+12  0.28565827     0.19043911     7.6418222e+14
    220000   5.0062712e+12  0.28571447     0.19047658     7.6418222e+14
    230000   5.0062712e+12  0.28559479     0.19039679     7.6418222e+14
    240000   5.0062712e+12  0.28582529     0.19055045     7.6418222e+14
    250000   5.0062712e+12  0.28549178     0.19032811     7.6418222e+14
    260000   5.0062712e+12  0.28544018     0.19029372     7.6418222e+14
    270000   5.0062712e+12  0.28553177     0.19035478     7.6418222e+14
    280000   5.0062712e+12  0.28544099     0.19029425     7.6418222e+14
    290000   5.0062712e+12  0.28523338     0.19015585     7.6418222e+14
    300000   5.0062712e+12  0.285704       0.19046959     7.6418222e+14
    310000   5.0062712e+12  0.28558021     0.19038707     7.6418222e+14
    320000   5.0062712e+12  0.28583488     0.19055685     7.6418222e+14
    330000   5.0062712e+12  0.28582954     0.19055329     7.6418222e+14
    340000   5.0062712e+12  0.28577309     0.19051566     7.6418222e+14
    350000   5.0062712e+12  0.28525226     0.19016844     7.6418222e+14
    360000   5.0062712e+12  0.28554533     0.19036382     7.6418222e+14
    370000   5.0062712e+12  0.28500015     0.19000036     7.6418222e+14
    380000   5.0062712e+12  0.28593824     0.19062575     7.6418222e+14
    390000   5.0062712e+12  0.28567663     0.19045135     7.6418222e+14
    400000   5.0062712e+12  0.2856399      0.19042686     7.6418222e+14
    410000   5.0062712e+12  0.28551208     0.19034165     7.6418222e+14
    420000   5.0062712e+12  0.28575015     0.19050037     7.6418222e+14
    430000   5.0062712e+12  0.28582932     0.19055314     7.6418222e+14
    440000   5.0062712e+12  0.28547164     0.19031469     7.6418222e+14
    450000   5.0062712e+12  0.28572811     0.19048567     7.6418222e+14
    460000   5.0062712e+12  0.28557412     0.19038301     7.6418222e+14
    470000   5.0062712e+12  0.28562269     0.19041539     7.6418222e+14
    480000   5.0062712e+12  0.28570815     0.19047236     7.6418222e+14
    490000   5.0062712e+12  0.28544403     0.19029629     7.6418222e+14
    500000   5.0062712e+12  0.28540209     0.19026832     7.6418222e+14
    510000   5.0062712e+12  0.28540375     0.19026943     7.6418222e+14
    520000   5.0062712e+12  0.28580742     0.19053855     7.6418222e+14
    530000   5.0062712e+12  0.28569368     0.19046271     7.6418222e+14
    540000   5.0062712e+12  0.28550344     0.19033589     7.6418222e+14
    550000   5.0062712e+12  0.28549743     0.19033188     7.6418222e+14
    560000   5.0062712e+12  0.28541079     0.19027412     7.6418222e+14
    570000   5.0062712e+12  0.28586029     0.19057379     7.6418222e+14
    580000   5.0062712e+12  0.28573619     0.19049106     7.6418222e+14
    590000   5.0062712e+12  0.2858455      0.19056393     7.6418222e+14
    600000   5.0062712e+12  0.28549126     0.19032777     7.6418222e+14
    610000   5.0062712e+12  0.28558495     0.19039023     7.6418222e+14
    620000   5.0062712e+12  0.28556208     0.19037498     7.6418222e+14
    630000   5.0062712e+12  0.28559666     0.19039804     7.6418222e+14
    640000   5.0062712e+12  0.28513394     0.19008955     7.6418222e+14
    650000   5.0062712e+12  0.28581658     0.19054465     7.6418222e+14
    660000   5.0062712e+12  0.28576203     0.19050828     7.6418222e+14
    670000   5.0062712e+12  0.28566481     0.19044347     7.6418222e+14
    680000   5.0062712e+12  0.28580849     0.19053926     7.6418222e+14
    690000   5.0062712e+12  0.2856513      0.19043446     7.6418222e+14
    700000   5.0062712e+12  0.28618974     0.19079342     7.6418222e+14
    710000   5.0062712e+12  0.28528332     0.19018914     7.6418222e+14
    720000   5.0062712e+12  0.28552805     0.1903523      7.6418222e+14
    730000   5.0062712e+12  0.28522071     0.1901474      7.6418222e+14
    740000   5.0062712e+12  0.28561019     0.19040706     7.6418222e+14
    750000   5.0062712e+12  0.28571048     0.19047392     7.6418222e+14
    760000   5.0062712e+12  0.28540905     0.19027297     7.6418222e+14
    770000   5.0062712e+12  0.28562314     0.19041569     7.6418222e+14
    780000   5.0062712e+12  0.28558775     0.19039209     7.6418222e+14
    790000   5.0062712e+12  0.28584581     0.19056413     7.6418222e+14
    800000   5.0062712e+12  0.28577843     0.19051922     7.6418222e+14
    810000   5.0062712e+12  0.2856487      0.19043273     7.6418222e+14
    820000   5.0062712e+12  0.28586105     0.1905743      7.6418222e+14
    830000   5.0062712e+12  0.28574633     0.19049782     7.6418222e+14
    840000   5.0062712e+12  0.28536561     0.190244       7.6418222e+14
    850000   5.0062712e+12  0.28584074     0.19056075     7.6418222e+14
    860000   5.0062712e+12  0.28545714     0.19030502     7.6418222e+14
    870000   5.0062712e+12  0.28556903     0.19037962     7.6418222e+14
    880000   5.0062712e+12  0.28591513     0.19061035     7.6418222e+14
    890000   5.0062712e+12  0.28540961     0.19027334     7.6418222e+14
    900000   5.0062712e+12  0.28564374     0.19042942     7.6418222e+14
    910000   5.0062712e+12  0.28551189     0.19034153     7.6418222e+14
    920000   5.0062712e+12  0.28584685     0.19056483     7.6418222e+14
    930000   5.0062712e+12  0.28526961     0.19018001     7.6418222e+14
    940000   5.0062712e+12  0.28537281     0.1902488      7.6418222e+14
    950000   5.0062712e+12  0.28554822     0.19036574     7.6418222e+14
    960000   5.0062712e+12  0.28543588     0.19029085     7.6418222e+14
    970000   5.0062712e+12  0.28578554     0.19052395     7.6418222e+14
    980000   5.0062712e+12  0.28511857     0.19007931     7.6418222e+14
    990000   5.0062712e+12  0.28566523     0.19044375     7.6418222e+14
   1000000   5.0062712e+12  0.28605416     0.19070304     7.6418222e+14
Loop time of 100291 on 4 procs for 1000000 steps with 723200 atoms

Performance: 861.494 tau/day, 9.971 timesteps/s, 7.211 Matom-step/s
197.4% CPU use with 1 MPI tasks x 4 OpenMP threads

MPI task timing breakdown:
Section |  min time  |  avg time  |  max time  |%varavg| %total
---------------------------------------------------------------
Pair    | 19591      | 19591      | 19591      |   0.0 | 19.53
Neigh   | 109.36     | 109.36     | 109.36     |   0.0 |  0.11
Comm    | 3633.1     | 3633.1     | 3633.1     |   0.0 |  3.62
Output  | 166.48     | 166.48     | 166.48     |   0.0 |  0.17
Modify  | 73041      | 73041      | 73041      |   0.0 | 72.83
Other   |            | 3750       |            |       |  3.74

Nlocal:         723200 ave      723200 max      723200 min
Histogram: 1 0 0 0 0 0 0 0 0 0
Nghost:          61746 ave       61746 max       61746 min
Histogram: 1 0 0 0 0 0 0 0 0 0
Neighs:    4.31553e+06 ave 4.31553e+06 max 4.31553e+06 min
Histogram: 1 0 0 0 0 0 0 0 0 0

Total # of neighbors = 4315530
Ave neighs/atom = 5.9672705
Neighbor list builds = 852
Dangerous builds = 0
Total wall time: 27:51:36
